<?xml version="1.0" encoding="UTF-8"?>

<!-- generated on 2024-02-09 15:48:10 by Eclipse SUMO GUI Version 1.19.0
<configuration xmlns:xsi="http://www.w3.org/2001/XMLSchema-instance" xsi:noNamespaceSchemaLocation="http://sumo.dlr.de/xsd/sumoConfiguration.xsd">

    <input>
        <net-file value="network.net.xml"/>
        <route-files value="routes.rou.xml"/>
    </input>

    <output>
        <queue-output value="output/queues.xml"/>
        <summary-output value="output/summary.xml"/>
        <tripinfo-output value="output/tripinfo.xml"/>
        <vehroute-output value="output/vehroutes.xml"/>
    </output>

    <time>
        <begin value="0"/>
        <end value="2000"/>
    </time>

</configuration>
-->

<queue-export xmlns:xsi="http://www.w3.org/2001/XMLSchema-instance" xsi:noNamespaceSchemaLocation="http://sumo.dlr.de/xsd/queue_file.xsd">
    <data timestep="0.00">
        <lanes/>
    </data>
    <data timestep="1.00">
        <lanes/>
    </data>
    <data timestep="2.00">
        <lanes/>
    </data>
    <data timestep="3.00">
        <lanes/>
    </data>
    <data timestep="4.00">
        <lanes/>
    </data>
    <data timestep="5.00">
        <lanes/>
    </data>
    <data timestep="6.00">
        <lanes/>
    </data>
    <data timestep="7.00">
        <lanes/>
    </data>
    <data timestep="8.00">
        <lanes/>
    </data>
    <data timestep="9.00">
        <lanes/>
    </data>
    <data timestep="10.00">
        <lanes/>
    </data>
    <data timestep="11.00">
        <lanes/>
    </data>
    <data timestep="12.00">
        <lanes/>
    </data>
    <data timestep="13.00">
        <lanes/>
    </data>
    <data timestep="14.00">
        <lanes>
            <lane id="edgeOutLeft_0" queueing_time="0.00" queueing_length="0.00" queueing_length_experimental="6.02"/>
        </lanes>
    </data>
    <data timestep="15.00">
        <lanes>
            <lane id="edgeOutLeft_0" queueing_time="1.00" queueing_length="6.00" queueing_length_experimental="6.00"/>
        </lanes>
    </data>
    <data timestep="16.00">
        <lanes>
            <lane id="edgeOutLeft_0" queueing_time="2.00" queueing_length="6.00" queueing_length_experimental="6.00"/>
        </lanes>
    </data>
    <data timestep="17.00">
        <lanes>
            <lane id="edgeOutLeft_0" queueing_time="3.00" queueing_length="6.00" queueing_length_experimental="6.00"/>
            <lane id="edgeOutRight_0" queueing_time="0.00" queueing_length="0.00" queueing_length_experimental="6.25"/>
        </lanes>
    </data>
    <data timestep="18.00">
        <lanes>
            <lane id="edgeOutLeft_0" queueing_time="4.00" queueing_length="6.00" queueing_length_experimental="6.00"/>
            <lane id="edgeOutRight_0" queueing_time="0.00" queueing_length="0.00" queueing_length_experimental="6.08"/>
        </lanes>
    </data>
    <data timestep="19.00">
        <lanes>
            <lane id="edgeOutLeft_0" queueing_time="5.00" queueing_length="6.00" queueing_length_experimental="6.00"/>
            <lane id="edgeOutRight_0" queueing_time="1.00" queueing_length="6.02" queueing_length_experimental="6.02"/>
        </lanes>
    </data>
    <data timestep="20.00">
        <lanes>
            <lane id="edgeOutLeft_0" queueing_time="6.00" queueing_length="6.00" queueing_length_experimental="13.66"/>
            <lane id="edgeOutRight_0" queueing_time="2.00" queueing_length="6.00" queueing_length_experimental="13.62"/>
        </lanes>
    </data>
    <data timestep="21.00">
        <lanes>
            <lane id="edgeOutLeft_0" queueing_time="7.00" queueing_length="6.00" queueing_length_experimental="13.54"/>
            <lane id="edgeOutRight_0" queueing_time="3.00" queueing_length="13.53" queueing_length_experimental="13.53"/>
        </lanes>
    </data>
    <data timestep="22.00">
        <lanes>
            <lane id="edgeOutLeft_0" queueing_time="8.00" queueing_length="13.51" queueing_length_experimental="13.51"/>
            <lane id="edgeOutRight_0" queueing_time="4.00" queueing_length="13.50" queueing_length_experimental="21.18"/>
        </lanes>
    </data>
    <data timestep="23.00">
        <lanes>
            <lane id="edgeOutLeft_0" queueing_time="9.00" queueing_length="13.51" queueing_length_experimental="13.51"/>
            <lane id="edgeOutRight_0" queueing_time="5.00" queueing_length="13.50" queueing_length_experimental="21.04"/>
        </lanes>
    </data>
    <data timestep="24.00">
        <lanes>
            <lane id="edgeOutLeft_0" queueing_time="10.00" queueing_length="13.50" queueing_length_experimental="13.50"/>
            <lane id="edgeOutRight_0" queueing_time="6.00" queueing_length="21.00" queueing_length_experimental="28.78"/>
        </lanes>
    </data>
    <data timestep="25.00">
        <lanes>
            <lane id="edgeOutLeft_0" queueing_time="11.00" queueing_length="13.50" queueing_length_experimental="21.56"/>
            <lane id="edgeOutRight_0" queueing_time="7.00" queueing_length="21.00" queueing_length_experimental="28.52"/>
        </lanes>
    </data>
    <data timestep="26.00">
        <lanes>
            <lane id="edgeOutLeft_0" queueing_time="12.00" queueing_length="13.50" queueing_length_experimental="21.13"/>
            <lane id="edgeOutRight_0" queueing_time="8.00" queueing_length="28.51" queueing_length_experimental="36.68"/>
        </lanes>
    </data>
    <data timestep="27.00">
        <lanes>
            <lane id="edgeOutLeft_0" queueing_time="13.00" queueing_length="21.03" queueing_length_experimental="21.03"/>
            <lane id="edgeOutRight_0" queueing_time="9.00" queueing_length="28.50" queueing_length_experimental="36.14"/>
        </lanes>
    </data>
    <data timestep="28.00">
        <lanes>
            <lane id="edgeOutLeft_0" queueing_time="14.00" queueing_length="28.55" queueing_length_experimental="28.55"/>
            <lane id="edgeOutRight_0" queueing_time="10.00" queueing_length="36.06" queueing_length_experimental="36.06"/>
        </lanes>
    </data>
    <data timestep="29.00">
        <lanes>
            <lane id="edgeOutLeft_0" queueing_time="15.00" queueing_length="28.51" queueing_length_experimental="28.51"/>
            <lane id="edgeOutRight_0" queueing_time="11.00" queueing_length="36.01" queueing_length_experimental="43.74"/>
        </lanes>
    </data>
    <data timestep="30.00">
        <lanes>
            <lane id="edgeOutLeft_0" queueing_time="16.00" queueing_length="28.51" queueing_length_experimental="36.15"/>
            <lane id="edgeOutRight_0" queueing_time="12.00" queueing_length="36.01" queueing_length_experimental="43.59"/>
        </lanes>
    </data>
    <data timestep="31.00">
        <lanes>
            <lane id="edgeOutLeft_0" queueing_time="17.00" queueing_length="36.08" queueing_length_experimental="36.08"/>
            <lane id="edgeOutRight_0" queueing_time="13.00" queueing_length="43.54" queueing_length_experimental="43.54"/>
        </lanes>
    </data>
    <data timestep="32.00">
        <lanes>
            <lane id="edgeOutLeft_0" queueing_time="18.00" queueing_length="36.01" queueing_length_experimental="43.99"/>
            <lane id="edgeOutRight_0" queueing_time="14.00" queueing_length="43.52" queueing_length_experimental="43.52"/>
        </lanes>
    </data>
    <data timestep="33.00">
        <lanes>
            <lane id="edgeOutLeft_0" queueing_time="19.00" queueing_length="36.01" queueing_length_experimental="43.66"/>
            <lane id="edgeOutRight_0" queueing_time="15.00" queueing_length="43.51" queueing_length_experimental="51.17"/>
        </lanes>
    </data>
    <data timestep="34.00">
        <lanes>
            <lane id="edgeOutLeft_0" queueing_time="20.00" queueing_length="36.01" queueing_length_experimental="43.53"/>
            <lane id="edgeOutRight_0" queueing_time="16.00" queueing_length="43.51" queueing_length_experimental="51.03"/>
        </lanes>
    </data>
    <data timestep="35.00">
        <lanes>
            <lane id="edgeOutLeft_0" queueing_time="21.00" queueing_length="43.51" queueing_length_experimental="43.51"/>
            <lane id="edgeOutRight_0" queueing_time="17.00" queueing_length="51.01" queueing_length_experimental="58.74"/>
        </lanes>
    </data>
    <data timestep="36.00">
        <lanes>
            <lane id="edgeOutLeft_0" queueing_time="22.00" queueing_length="43.51" queueing_length_experimental="43.51"/>
            <lane id="edgeOutRight_0" queueing_time="18.00" queueing_length="51.01" queueing_length_experimental="58.59"/>
        </lanes>
    </data>
    <data timestep="37.00">
        <lanes>
            <lane id="edgeOutLeft_0" queueing_time="23.00" queueing_length="51.02" queueing_length_experimental="51.02"/>
            <lane id="edgeOutRight_0" queueing_time="19.00" queueing_length="58.54" queueing_length_experimental="58.54"/>
        </lanes>
    </data>
    <data timestep="38.00">
        <lanes>
            <lane id="edgeOutLeft_0" queueing_time="24.00" queueing_length="51.01" queueing_length_experimental="51.01"/>
            <lane id="edgeOutRight_0" queueing_time="20.00" queueing_length="58.51" queueing_length_experimental="66.11"/>
        </lanes>
    </data>
    <data timestep="39.00">
        <lanes>
            <lane id="edgeOutLeft_0" queueing_time="25.00" queueing_length="51.01" queueing_length_experimental="51.01"/>
            <lane id="edgeOutRight_0" queueing_time="21.00" queueing_length="66.06" queueing_length_experimental="66.06"/>
        </lanes>
    </data>
    <data timestep="40.00">
        <lanes>
            <lane id="edgeOutLeft_0" queueing_time="26.00" queueing_length="51.01" queueing_length_experimental="58.62"/>
            <lane id="edgeOutRight_0" queueing_time="22.00" queueing_length="66.02" queueing_length_experimental="73.74"/>
        </lanes>
    </data>
    <data timestep="41.00">
        <lanes>
            <lane id="edgeOutLeft_0" queueing_time="27.00" queueing_length="58.56" queueing_length_experimental="58.56"/>
            <lane id="edgeOutRight_0" queueing_time="23.00" queueing_length="66.01" queueing_length_experimental="73.53"/>
        </lanes>
    </data>
</queue-export>
