<?xml version="1.0" encoding="UTF-8"?>

<!-- generated on 2024-02-09 15:48:10 by Eclipse SUMO GUI Version 1.19.0
<configuration xmlns:xsi="http://www.w3.org/2001/XMLSchema-instance" xsi:noNamespaceSchemaLocation="http://sumo.dlr.de/xsd/sumoConfiguration.xsd">

    <input>
        <net-file value="network.net.xml"/>
        <route-files value="routes.rou.xml"/>
    </input>

    <output>
        <queue-output value="output/queues.xml"/>
        <summary-output value="output/summary.xml"/>
        <tripinfo-output value="output/tripinfo.xml"/>
        <vehroute-output value="output/vehroutes.xml"/>
    </output>

    <time>
        <begin value="0"/>
        <end value="2000"/>
    </time>

</configuration>
-->

<tripinfos xmlns:xsi="http://www.w3.org/2001/XMLSchema-instance" xsi:noNamespaceSchemaLocation="http://sumo.dlr.de/xsd/tripinfo_file.xsd">
    <tripinfo id="0" depart="0.00" departLane="edgeOutBottom_0" departPos="5.10" departSpeed="0.00" departDelay="0.00" arrival="18.00" arrivalLane="edgeInTop_0" arrivalPos="100.00" arrivalSpeed="14.16" duration="18.00" routeLength="209.30" waitingTime="0.00" waitingCount="0" stopTime="0.00" timeLoss="3.71" rerouteNo="0" devices="vehroute_0 tripinfo_0" vType="car" speedFactor="1.06" vaporized=""/>
    <tripinfo id="2" depart="2.00" departLane="edgeOutTop_0" departPos="5.10" departSpeed="0.00" departDelay="0.00" arrival="21.00" arrivalLane="edgeInBottom_0" arrivalPos="100.00" arrivalSpeed="13.73" duration="19.00" routeLength="209.30" waitingTime="0.00" waitingCount="0" stopTime="0.00" timeLoss="3.57" rerouteNo="0" devices="vehroute_2 tripinfo_2" vType="bus" speedFactor="1.01" vaporized=""/>
    <tripinfo id="3" depart="3.00" departLane="edgeOutBottom_0" departPos="5.10" departSpeed="0.00" departDelay="0.00" arrival="24.00" arrivalLane="edgeInRight_0" arrivalPos="100.00" arrivalSpeed="14.78" duration="21.00" routeLength="209.10" waitingTime="0.00" waitingCount="0" stopTime="0.00" timeLoss="6.04" rerouteNo="0" devices="vehroute_3 tripinfo_3" vType="car" speedFactor="1.08" vaporized=""/>
    <tripinfo id="10" depart="10.00" departLane="edgeOutTop_0" departPos="5.10" departSpeed="0.00" departDelay="0.00" arrival="30.00" arrivalLane="edgeInRight_0" arrivalPos="100.00" arrivalSpeed="13.87" duration="20.00" routeLength="203.93" waitingTime="0.00" waitingCount="0" stopTime="0.00" timeLoss="5.81" rerouteNo="0" devices="vehroute_10 tripinfo_10" vType="bus" speedFactor="1.09" vaporized=""/>
    <tripinfo id="9" depart="9.00" departLane="edgeOutBottom_0" departPos="5.10" departSpeed="0.00" departDelay="0.00" arrival="32.00" arrivalLane="edgeInLeft_0" arrivalPos="100.00" arrivalSpeed="11.72" duration="23.00" routeLength="203.93" waitingTime="0.00" waitingCount="0" stopTime="0.00" timeLoss="4.94" rerouteNo="0" devices="vehroute_9 tripinfo_9" vType="bus" speedFactor="0.86" vaporized=""/>
    <tripinfo id="13" depart="13.00" departLane="edgeOutBottom_0" departPos="5.10" departSpeed="0.00" departDelay="0.00" arrival="32.00" arrivalLane="edgeInTop_0" arrivalPos="100.00" arrivalSpeed="14.79" duration="19.00" routeLength="209.30" waitingTime="0.00" waitingCount="0" stopTime="0.00" timeLoss="4.89" rerouteNo="0" devices="vehroute_13 tripinfo_13" vType="bike" speedFactor="1.12" vaporized=""/>
    <tripinfo id="11" depart="13.00" departLane="edgeOutTop_0" departPos="5.10" departSpeed="0.00" departDelay="2.00" arrival="34.00" arrivalLane="edgeInRight_0" arrivalPos="100.00" arrivalSpeed="12.97" duration="21.00" routeLength="203.93" waitingTime="0.00" waitingCount="0" stopTime="0.00" timeLoss="5.45" rerouteNo="0" devices="vehroute_11 tripinfo_11" vType="bike" speedFactor="1.03" vaporized=""/>
    <tripinfo id="18" depart="18.00" departLane="edgeOutTop_0" departPos="5.10" departSpeed="0.00" departDelay="0.00" arrival="40.00" arrivalLane="edgeInRight_0" arrivalPos="100.00" arrivalSpeed="12.98" duration="22.00" routeLength="203.93" waitingTime="0.00" waitingCount="0" stopTime="0.00" timeLoss="5.48" rerouteNo="0" devices="vehroute_18 tripinfo_18" vType="bus" speedFactor="0.94" vaporized=""/>
    <tripinfo id="19" depart="21.00" departLane="edgeOutBottom_0" departPos="5.10" departSpeed="0.00" departDelay="2.00" arrival="40.00" arrivalLane="edgeInLeft_0" arrivalPos="100.00" arrivalSpeed="14.95" duration="19.00" routeLength="203.93" waitingTime="0.00" waitingCount="0" stopTime="0.00" timeLoss="5.70" rerouteNo="0" devices="vehroute_19 tripinfo_19" vType="bus" speedFactor="1.16" vaporized=""/>
</tripinfos>
