<?xml version="1.0" encoding="UTF-8"?>

<!-- generated on 2024-02-09 16:06:36 by Eclipse SUMO GUI Version 1.19.0
<configuration xmlns:xsi="http://www.w3.org/2001/XMLSchema-instance" xsi:noNamespaceSchemaLocation="http://sumo.dlr.de/xsd/sumoConfiguration.xsd">

    <input>
        <net-file value="network.net.xml"/>
        <route-files value="sorted_random_route.rou.xml"/>
    </input>

    <output>
        <queue-output value="output/queues.xml"/>
        <summary-output value="output/summary.xml"/>
        <tripinfo-output value="output/tripinfo.xml"/>
        <vehroute-output value="output/vehroutes.xml"/>
    </output>

    <time>
        <begin value="0"/>
        <end value="2000"/>
    </time>

</configuration>
-->

<tripinfos xmlns:xsi="http://www.w3.org/2001/XMLSchema-instance" xsi:noNamespaceSchemaLocation="http://sumo.dlr.de/xsd/tripinfo_file.xsd">
    <tripinfo id="4" depart="32.00" departLane="edgeOutTop_0" departPos="5.10" departSpeed="0.00" departDelay="0.22" arrival="51.00" arrivalLane="edgeInBottom_0" arrivalPos="100.00" arrivalSpeed="13.62" duration="19.00" routeLength="209.30" waitingTime="0.00" waitingCount="0" stopTime="0.00" timeLoss="3.62" rerouteNo="0" devices="vehroute_4 tripinfo_4" vType="bus" speedFactor="1.03" vaporized=""/>
    <tripinfo id="5" depart="40.00" departLane="edgeOutTop_0" departPos="5.10" departSpeed="0.00" departDelay="0.15" arrival="62.00" arrivalLane="edgeInBottom_0" arrivalPos="100.00" arrivalSpeed="10.98" duration="22.00" routeLength="209.30" waitingTime="0.00" waitingCount="0" stopTime="0.00" timeLoss="3.34" rerouteNo="0" devices="vehroute_5 tripinfo_5" vType="car" speedFactor="0.83" vaporized=""/>
    <tripinfo id="0" depart="6.00" departLane="edgeOutLeft_0" departPos="5.10" departSpeed="0.00" departDelay="0.94" arrival="76.00" arrivalLane="edgeInTop_0" arrivalPos="100.00" arrivalSpeed="13.63" duration="70.00" routeLength="203.93" waitingTime="45.00" waitingCount="1" stopTime="0.00" timeLoss="55.14" rerouteNo="0" devices="vehroute_0 tripinfo_0" vType="bus" speedFactor="1.06" vaporized=""/>
    <tripinfo id="1" depart="12.00" departLane="edgeOutLeft_0" departPos="5.10" departSpeed="0.00" departDelay="0.25" arrival="79.00" arrivalLane="edgeInBottom_0" arrivalPos="100.00" arrivalSpeed="12.77" duration="67.00" routeLength="209.10" waitingTime="40.00" waitingCount="1" stopTime="0.00" timeLoss="49.88" rerouteNo="0" devices="vehroute_1 tripinfo_1" vType="bike" speedFactor="0.94" vaporized=""/>
    <tripinfo id="2" depart="18.00" departLane="edgeOutLeft_0" departPos="5.10" departSpeed="0.00" departDelay="0.13" arrival="80.00" arrivalLane="edgeInRight_0" arrivalPos="100.00" arrivalSpeed="12.78" duration="62.00" routeLength="209.30" waitingTime="35.00" waitingCount="1" stopTime="0.00" timeLoss="46.85" rerouteNo="0" devices="vehroute_2 tripinfo_2" vType="bike" speedFactor="1.01" vaporized=""/>
    <tripinfo id="3" depart="26.00" departLane="edgeOutLeft_0" departPos="5.10" departSpeed="0.00" departDelay="0.45" arrival="82.00" arrivalLane="edgeInRight_0" arrivalPos="100.00" arrivalSpeed="14.24" duration="56.00" routeLength="209.30" waitingTime="30.00" waitingCount="1" stopTime="0.00" timeLoss="41.50" rerouteNo="0" devices="vehroute_3 tripinfo_3" vType="car" speedFactor="1.08" vaporized=""/>
    <tripinfo id="6" depart="46.00" departLane="edgeOutLeft_0" departPos="5.10" departSpeed="0.00" departDelay="0.01" arrival="85.00" arrivalLane="edgeInTop_0" arrivalPos="100.00" arrivalSpeed="13.71" duration="39.00" routeLength="203.93" waitingTime="11.00" waitingCount="1" stopTime="0.00" timeLoss="24.31" rerouteNo="0" devices="vehroute_6 tripinfo_6" vType="bus" speedFactor="1.05" vaporized=""/>
    <tripinfo id="7" depart="53.00" departLane="edgeOutLeft_0" departPos="5.10" departSpeed="0.00" departDelay="0.89" arrival="90.00" arrivalLane="edgeInBottom_0" arrivalPos="100.00" arrivalSpeed="11.51" duration="37.00" routeLength="209.10" waitingTime="5.00" waitingCount="1" stopTime="0.00" timeLoss="18.44" rerouteNo="0" devices="vehroute_7 tripinfo_7" vType="bike" speedFactor="0.89" vaporized=""/>
    <tripinfo id="10" depart="77.00" departLane="edgeOutLeft_0" departPos="5.10" departSpeed="0.00" departDelay="0.53" arrival="97.00" arrivalLane="edgeInTop_0" arrivalPos="100.00" arrivalSpeed="14.09" duration="20.00" routeLength="203.93" waitingTime="0.00" waitingCount="0" stopTime="0.00" timeLoss="5.58" rerouteNo="0" devices="vehroute_10 tripinfo_10" vType="bus" speedFactor="1.09" vaporized=""/>
    <tripinfo id="11" depart="85.00" departLane="edgeOutRight_0" departPos="5.10" departSpeed="0.00" departDelay="0.11" arrival="106.00" arrivalLane="edgeInBottom_0" arrivalPos="100.00" arrivalSpeed="13.26" duration="21.00" routeLength="203.93" waitingTime="0.00" waitingCount="0" stopTime="0.00" timeLoss="5.74" rerouteNo="0" devices="vehroute_11 tripinfo_11" vType="car" speedFactor="1.03" vaporized=""/>
    <tripinfo id="12" depart="93.00" departLane="edgeOutLeft_0" departPos="5.10" departSpeed="0.00" departDelay="0.34" arrival="112.00" arrivalLane="edgeInRight_0" arrivalPos="100.00" arrivalSpeed="13.97" duration="19.00" routeLength="209.30" waitingTime="0.00" waitingCount="0" stopTime="0.00" timeLoss="3.80" rerouteNo="0" devices="vehroute_12 tripinfo_12" vType="car" speedFactor="1.05" vaporized=""/>
    <tripinfo id="13" depart="102.00" departLane="edgeOutLeft_0" departPos="5.10" departSpeed="0.00" departDelay="0.76" arrival="122.00" arrivalLane="edgeInBottom_0" arrivalPos="100.00" arrivalSpeed="15.57" duration="20.00" routeLength="209.10" waitingTime="0.00" waitingCount="0" stopTime="0.00" timeLoss="6.08" rerouteNo="0" devices="vehroute_13 tripinfo_13" vType="bus" speedFactor="1.12" vaporized=""/>
    <tripinfo id="14" depart="107.00" departLane="edgeOutLeft_0" departPos="5.10" departSpeed="0.00" departDelay="0.30" arrival="127.00" arrivalLane="edgeInRight_0" arrivalPos="100.00" arrivalSpeed="13.69" duration="20.00" routeLength="209.30" waitingTime="0.00" waitingCount="0" stopTime="0.00" timeLoss="4.07" rerouteNo="0" devices="vehroute_14 tripinfo_14" vType="bus" speedFactor="0.99" vaporized=""/>
    <tripinfo id="9" depart="69.00" departLane="edgeOutBottom_0" departPos="5.10" departSpeed="0.00" departDelay="0.02" arrival="142.00" arrivalLane="edgeInLeft_0" arrivalPos="100.00" arrivalSpeed="11.76" duration="73.00" routeLength="203.93" waitingTime="48.00" waitingCount="1" stopTime="0.00" timeLoss="54.65" rerouteNo="0" devices="vehroute_9 tripinfo_9" vType="car" speedFactor="0.86" vaporized=""/>
    <tripinfo id="8" depart="62.00" departLane="edgeOutTop_0" departPos="5.10" departSpeed="0.00" departDelay="0.11" arrival="144.00" arrivalLane="edgeInLeft_0" arrivalPos="100.00" arrivalSpeed="12.12" duration="82.00" routeLength="209.10" waitingTime="56.00" waitingCount="2" stopTime="0.00" timeLoss="65.10" rerouteNo="0" devices="vehroute_8 tripinfo_8" vType="bike" speedFactor="0.94" vaporized=""/>
    <tripinfo id="18" depart="135.00" departLane="edgeOutTop_0" departPos="5.10" departSpeed="0.00" departDelay="0.78" arrival="157.00" arrivalLane="edgeInRight_0" arrivalPos="100.00" arrivalSpeed="12.30" duration="22.00" routeLength="203.93" waitingTime="0.00" waitingCount="0" stopTime="0.00" timeLoss="5.54" rerouteNo="0" devices="vehroute_18 tripinfo_18" vType="car" speedFactor="0.94" vaporized=""/>
    <tripinfo id="19" depart="144.00" departLane="edgeOutTop_0" departPos="5.10" departSpeed="0.00" departDelay="0.78" arrival="164.00" arrivalLane="edgeInRight_0" arrivalPos="100.00" arrivalSpeed="15.08" duration="20.00" routeLength="203.93" waitingTime="0.00" waitingCount="0" stopTime="0.00" timeLoss="5.99" rerouteNo="0" devices="vehroute_19 tripinfo_19" vType="car" speedFactor="1.16" vaporized=""/>
    <tripinfo id="20" depart="154.00" departLane="edgeOutTop_0" departPos="5.10" departSpeed="0.00" departDelay="0.92" arrival="175.00" arrivalLane="edgeInRight_0" arrivalPos="100.00" arrivalSpeed="13.85" duration="21.00" routeLength="203.93" waitingTime="0.00" waitingCount="0" stopTime="0.00" timeLoss="5.43" rerouteNo="0" devices="vehroute_20 tripinfo_20" vType="bus" speedFactor="1.02" vaporized=""/>
    <tripinfo id="21" depart="159.00" departLane="edgeOutTop_0" departPos="5.10" departSpeed="0.00" departDelay="0.68" arrival="180.00" arrivalLane="edgeInRight_0" arrivalPos="100.00" arrivalSpeed="12.99" duration="21.00" routeLength="203.93" waitingTime="0.00" waitingCount="0" stopTime="0.00" timeLoss="6.02" rerouteNo="0" devices="vehroute_21 tripinfo_21" vType="car" speedFactor="1.01" vaporized=""/>
    <tripinfo id="15" depart="117.00" departLane="edgeOutRight_0" departPos="5.10" departSpeed="0.00" departDelay="0.41" arrival="206.00" arrivalLane="edgeInBottom_0" arrivalPos="100.00" arrivalSpeed="12.09" duration="89.00" routeLength="203.93" waitingTime="66.00" waitingCount="1" stopTime="0.00" timeLoss="72.33" rerouteNo="0" devices="vehroute_15 tripinfo_15" vType="car" speedFactor="0.93" vaporized=""/>
    <tripinfo id="16" depart="123.00" departLane="edgeOutLeft_0" departPos="5.10" departSpeed="0.00" departDelay="0.57" arrival="207.00" arrivalLane="edgeInRight_0" arrivalPos="100.00" arrivalSpeed="12.12" duration="84.00" routeLength="209.30" waitingTime="57.00" waitingCount="1" stopTime="0.00" timeLoss="66.04" rerouteNo="0" devices="vehroute_16 tripinfo_16" vType="bus" speedFactor="0.88" vaporized=""/>
    <tripinfo id="17" depart="129.00" departLane="edgeOutRight_0" departPos="5.10" departSpeed="0.00" departDelay="0.79" arrival="209.00" arrivalLane="edgeInTop_0" arrivalPos="100.00" arrivalSpeed="11.89" duration="80.00" routeLength="209.10" waitingTime="54.00" waitingCount="1" stopTime="0.00" timeLoss="62.86" rerouteNo="0" devices="vehroute_17 tripinfo_17" vType="bus" speedFactor="0.94" vaporized=""/>
    <tripinfo id="22" depart="168.00" departLane="edgeOutRight_0" departPos="5.10" departSpeed="0.00" departDelay="0.10" arrival="211.00" arrivalLane="edgeInBottom_0" arrivalPos="100.00" arrivalSpeed="13.48" duration="43.00" routeLength="203.93" waitingTime="17.00" waitingCount="1" stopTime="0.00" timeLoss="26.91" rerouteNo="0" devices="vehroute_22 tripinfo_22" vType="car" speedFactor="0.97" vaporized=""/>
    <tripinfo id="23" depart="175.00" departLane="edgeOutRight_0" departPos="5.10" departSpeed="0.00" departDelay="0.53" arrival="213.00" arrivalLane="edgeInLeft_0" arrivalPos="100.00" arrivalSpeed="11.61" duration="38.00" routeLength="209.30" waitingTime="11.00" waitingCount="1" stopTime="0.00" timeLoss="20.62" rerouteNo="0" devices="vehroute_23 tripinfo_23" vType="car" speedFactor="0.89" vaporized=""/>
    <tripinfo id="28" depart="215.00" departLane="edgeOutLeft_0" departPos="5.10" departSpeed="0.00" departDelay="0.86" arrival="233.00" arrivalLane="edgeInRight_0" arrivalPos="100.00" arrivalSpeed="14.70" duration="18.00" routeLength="209.30" waitingTime="0.00" waitingCount="0" stopTime="0.00" timeLoss="3.79" rerouteNo="0" devices="vehroute_28 tripinfo_28" vType="bike" speedFactor="1.13" vaporized=""/>
    <tripinfo id="29" depart="222.00" departLane="edgeOutRight_0" departPos="5.10" departSpeed="0.00" departDelay="0.87" arrival="244.00" arrivalLane="edgeInTop_0" arrivalPos="100.00" arrivalSpeed="12.19" duration="22.00" routeLength="209.10" waitingTime="0.00" waitingCount="0" stopTime="0.00" timeLoss="4.60" rerouteNo="0" devices="vehroute_29 tripinfo_29" vType="car" speedFactor="0.93" vaporized=""/>
    <tripinfo id="31" depart="236.00" departLane="edgeOutRight_0" departPos="5.10" departSpeed="0.00" departDelay="0.76" arrival="255.00" arrivalLane="edgeInBottom_0" arrivalPos="100.00" arrivalSpeed="15.93" duration="19.00" routeLength="203.93" waitingTime="0.00" waitingCount="0" stopTime="0.00" timeLoss="5.12" rerouteNo="0" devices="vehroute_31 tripinfo_31" vType="car" speedFactor="1.15" vaporized=""/>
    <tripinfo id="32" depart="243.00" departLane="edgeOutLeft_0" departPos="5.10" departSpeed="0.00" departDelay="0.88" arrival="264.00" arrivalLane="edgeInTop_0" arrivalPos="100.00" arrivalSpeed="12.93" duration="21.00" routeLength="203.93" waitingTime="0.00" waitingCount="0" stopTime="0.00" timeLoss="5.85" rerouteNo="0" devices="vehroute_32 tripinfo_32" vType="bike" speedFactor="1.01" vaporized=""/>
    <tripinfo id="24" depart="183.00" departLane="edgeOutTop_0" departPos="5.10" departSpeed="0.00" departDelay="0.15" arrival="273.00" arrivalLane="edgeInBottom_0" arrivalPos="100.00" arrivalSpeed="11.23" duration="90.00" routeLength="209.30" waitingTime="62.00" waitingCount="1" stopTime="0.00" timeLoss="70.81" rerouteNo="0" devices="vehroute_24 tripinfo_24" vType="bike" speedFactor="0.83" vaporized=""/>
    <tripinfo id="25" depart="192.00" departLane="edgeOutTop_0" departPos="5.10" departSpeed="0.00" departDelay="0.94" arrival="274.00" arrivalLane="edgeInBottom_0" arrivalPos="100.00" arrivalSpeed="11.99" duration="82.00" routeLength="209.30" waitingTime="56.00" waitingCount="1" stopTime="0.00" timeLoss="64.63" rerouteNo="0" devices="vehroute_25 tripinfo_25" vType="bus" speedFactor="0.87" vaporized=""/>
    <tripinfo id="27" depart="209.00" departLane="edgeOutTop_0" departPos="5.10" departSpeed="0.00" departDelay="2.86" arrival="276.00" arrivalLane="edgeInLeft_0" arrivalPos="100.00" arrivalSpeed="12.85" duration="67.00" routeLength="209.10" waitingTime="40.00" waitingCount="1" stopTime="0.00" timeLoss="49.60" rerouteNo="0" devices="vehroute_27 tripinfo_27" vType="bike" speedFactor="0.95" vaporized=""/>
    <tripinfo id="30" depart="227.00" departLane="edgeOutTop_0" departPos="5.10" departSpeed="0.00" departDelay="0.63" arrival="276.00" arrivalLane="edgeInBottom_0" arrivalPos="100.00" arrivalSpeed="15.17" duration="49.00" routeLength="209.30" waitingTime="24.00" waitingCount="1" stopTime="0.00" timeLoss="35.79" rerouteNo="0" devices="vehroute_30 tripinfo_30" vType="car" speedFactor="1.18" vaporized=""/>
    <tripinfo id="26" depart="199.00" departLane="edgeOutBottom_0" departPos="5.10" departSpeed="0.00" departDelay="0.06" arrival="282.00" arrivalLane="edgeInRight_0" arrivalPos="100.00" arrivalSpeed="11.95" duration="83.00" routeLength="209.10" waitingTime="54.00" waitingCount="2" stopTime="0.00" timeLoss="64.82" rerouteNo="0" devices="vehroute_26 tripinfo_26" vType="car" speedFactor="0.92" vaporized=""/>
    <tripinfo id="33" depart="251.00" departLane="edgeOutBottom_0" departPos="5.10" departSpeed="0.00" departDelay="0.78" arrival="283.00" arrivalLane="edgeInTop_0" arrivalPos="100.00" arrivalSpeed="15.58" duration="32.00" routeLength="209.30" waitingTime="5.00" waitingCount="1" stopTime="0.00" timeLoss="18.99" rerouteNo="0" devices="vehroute_33 tripinfo_33" vType="bus" speedFactor="1.17" vaporized=""/>
    <tripinfo id="38" depart="287.00" departLane="edgeOutBottom_0" departPos="5.10" departSpeed="0.00" departDelay="0.95" arrival="305.00" arrivalLane="edgeInTop_0" arrivalPos="100.00" arrivalSpeed="15.18" duration="18.00" routeLength="209.30" waitingTime="0.00" waitingCount="0" stopTime="0.00" timeLoss="3.38" rerouteNo="0" devices="vehroute_38 tripinfo_38" vType="car" speedFactor="1.10" vaporized=""/>
    <tripinfo id="40" depart="299.00" departLane="edgeOutBottom_0" departPos="5.10" departSpeed="0.00" departDelay="0.32" arrival="320.00" arrivalLane="edgeInRight_0" arrivalPos="100.00" arrivalSpeed="13.96" duration="21.00" routeLength="209.10" waitingTime="0.00" waitingCount="0" stopTime="0.00" timeLoss="5.64" rerouteNo="0" devices="vehroute_40 tripinfo_40" vType="car" speedFactor="1.03" vaporized=""/>
    <tripinfo id="41" depart="309.00" departLane="edgeOutBottom_0" departPos="5.10" departSpeed="0.00" departDelay="0.45" arrival="331.00" arrivalLane="edgeInRight_0" arrivalPos="100.00" arrivalSpeed="12.98" duration="22.00" routeLength="209.10" waitingTime="0.00" waitingCount="0" stopTime="0.00" timeLoss="5.29" rerouteNo="0" devices="vehroute_41 tripinfo_41" vType="bike" speedFactor="0.96" vaporized=""/>
    <tripinfo id="34" depart="260.00" departLane="edgeOutRight_0" departPos="5.10" departSpeed="0.00" departDelay="0.59" arrival="336.00" arrivalLane="edgeInLeft_0" arrivalPos="100.00" arrivalSpeed="13.81" duration="76.00" routeLength="209.30" waitingTime="51.00" waitingCount="1" stopTime="0.00" timeLoss="60.42" rerouteNo="0" devices="vehroute_34 tripinfo_34" vType="car" speedFactor="0.99" vaporized=""/>
    <tripinfo id="35" depart="265.00" departLane="edgeOutRight_0" departPos="5.10" departSpeed="0.00" departDelay="0.16" arrival="339.00" arrivalLane="edgeInBottom_0" arrivalPos="100.00" arrivalSpeed="13.38" duration="74.00" routeLength="203.93" waitingTime="48.00" waitingCount="1" stopTime="0.00" timeLoss="57.82" rerouteNo="0" devices="vehroute_35 tripinfo_35" vType="car" speedFactor="1.02" vaporized=""/>
    <tripinfo id="36" depart="272.00" departLane="edgeOutRight_0" departPos="5.10" departSpeed="0.00" departDelay="0.81" arrival="342.00" arrivalLane="edgeInTop_0" arrivalPos="100.00" arrivalSpeed="12.43" duration="70.00" routeLength="209.10" waitingTime="43.00" waitingCount="1" stopTime="0.00" timeLoss="53.25" rerouteNo="0" devices="vehroute_36 tripinfo_36" vType="car" speedFactor="0.97" vaporized=""/>
    <tripinfo id="39" depart="292.00" departLane="edgeOutRight_0" departPos="5.10" departSpeed="0.00" departDelay="0.66" arrival="344.00" arrivalLane="edgeInBottom_0" arrivalPos="100.00" arrivalSpeed="12.32" duration="52.00" routeLength="203.93" waitingTime="25.00" waitingCount="1" stopTime="0.00" timeLoss="34.49" rerouteNo="0" devices="vehroute_39 tripinfo_39" vType="car" speedFactor="0.90" vaporized=""/>
    <tripinfo id="42" depart="320.00" departLane="edgeOutRight_0" departPos="5.10" departSpeed="0.00" departDelay="1.93" arrival="345.00" arrivalLane="edgeInLeft_0" arrivalPos="100.00" arrivalSpeed="14.25" duration="25.00" routeLength="209.30" waitingTime="0.00" waitingCount="0" stopTime="0.00" timeLoss="10.28" rerouteNo="0" devices="vehroute_42 tripinfo_42" vType="bike" speedFactor="1.09" vaporized=""/>
    <tripinfo id="37" depart="277.00" departLane="edgeOutLeft_0" departPos="5.10" departSpeed="0.00" departDelay="0.66" arrival="349.00" arrivalLane="edgeInBottom_0" arrivalPos="100.00" arrivalSpeed="15.66" duration="72.00" routeLength="209.10" waitingTime="46.00" waitingCount="2" stopTime="0.00" timeLoss="58.09" rerouteNo="0" devices="vehroute_37 tripinfo_37" vType="car" speedFactor="1.18" vaporized=""/>
    <tripinfo id="43" depart="325.00" departLane="edgeOutLeft_0" departPos="5.10" departSpeed="0.00" departDelay="0.95" arrival="350.00" arrivalLane="edgeInRight_0" arrivalPos="100.00" arrivalSpeed="14.17" duration="25.00" routeLength="209.30" waitingTime="2.00" waitingCount="1" stopTime="0.00" timeLoss="10.45" rerouteNo="0" devices="vehroute_43 tripinfo_43" vType="bike" speedFactor="1.04" vaporized=""/>
    <tripinfo id="44" depart="330.00" departLane="edgeOutLeft_0" departPos="5.10" departSpeed="0.00" departDelay="0.41" arrival="353.00" arrivalLane="edgeInBottom_0" arrivalPos="100.00" arrivalSpeed="13.93" duration="23.00" routeLength="209.10" waitingTime="0.00" waitingCount="0" stopTime="0.00" timeLoss="7.52" rerouteNo="0" devices="vehroute_44 tripinfo_44" vType="car" speedFactor="1.04" vaporized=""/>
    <tripinfo id="46" depart="345.00" departLane="edgeOutLeft_0" departPos="5.10" departSpeed="0.00" departDelay="0.17" arrival="364.00" arrivalLane="edgeInRight_0" arrivalPos="100.00" arrivalSpeed="12.94" duration="19.00" routeLength="209.30" waitingTime="0.00" waitingCount="0" stopTime="0.00" timeLoss="3.67" rerouteNo="0" devices="vehroute_46 tripinfo_46" vType="car" speedFactor="1.00" vaporized=""/>
    <tripinfo id="47" depart="351.00" departLane="edgeOutLeft_0" departPos="5.10" departSpeed="0.00" departDelay="0.33" arrival="372.00" arrivalLane="edgeInRight_0" arrivalPos="100.00" arrivalSpeed="11.70" duration="21.00" routeLength="209.30" waitingTime="0.00" waitingCount="0" stopTime="0.00" timeLoss="3.41" rerouteNo="0" devices="vehroute_47 tripinfo_47" vType="bike" speedFactor="0.90" vaporized=""/>
    <tripinfo id="45" depart="339.00" departLane="edgeOutTop_0" departPos="5.10" departSpeed="0.00" departDelay="0.32" arrival="401.00" arrivalLane="edgeInBottom_0" arrivalPos="100.00" arrivalSpeed="13.81" duration="62.00" routeLength="209.30" waitingTime="39.00" waitingCount="1" stopTime="0.00" timeLoss="47.31" rerouteNo="0" devices="vehroute_45 tripinfo_45" vType="bus" speedFactor="1.09" vaporized=""/>
    <tripinfo id="48" depart="357.00" departLane="edgeOutBottom_0" departPos="5.10" departSpeed="0.00" departDelay="0.66" arrival="402.00" arrivalLane="edgeInTop_0" arrivalPos="100.00" arrivalSpeed="11.13" duration="45.00" routeLength="209.30" waitingTime="19.00" waitingCount="1" stopTime="0.00" timeLoss="27.73" rerouteNo="0" devices="vehroute_48 tripinfo_48" vType="car" speedFactor="0.88" vaporized=""/>
    <tripinfo id="50" depart="374.00" departLane="edgeOutBottom_0" departPos="5.10" departSpeed="0.00" departDelay="0.43" arrival="404.00" arrivalLane="edgeInTop_0" arrivalPos="100.00" arrivalSpeed="11.30" duration="30.00" routeLength="209.30" waitingTime="3.00" waitingCount="1" stopTime="0.00" timeLoss="12.37" rerouteNo="0" devices="vehroute_50 tripinfo_50" vType="bike" speedFactor="0.85" vaporized=""/>
    <tripinfo id="49" depart="365.00" departLane="edgeOutTop_0" departPos="5.10" departSpeed="0.00" departDelay="0.49" arrival="409.00" arrivalLane="edgeInLeft_0" arrivalPos="100.00" arrivalSpeed="11.23" duration="44.00" routeLength="209.10" waitingTime="13.00" waitingCount="1" stopTime="0.00" timeLoss="24.86" rerouteNo="0" devices="vehroute_49 tripinfo_49" vType="car" speedFactor="0.85" vaporized=""/>
    <tripinfo id="51" depart="384.00" departLane="edgeOutTop_0" departPos="5.10" departSpeed="0.00" departDelay="0.55" arrival="410.00" arrivalLane="edgeInLeft_0" arrivalPos="100.00" arrivalSpeed="13.42" duration="26.00" routeLength="209.10" waitingTime="0.00" waitingCount="0" stopTime="0.00" timeLoss="12.63" rerouteNo="0" devices="vehroute_51 tripinfo_51" vType="car" speedFactor="1.17" vaporized=""/>
    <tripinfo id="54" depart="410.00" departLane="edgeOutTop_0" departPos="5.10" departSpeed="0.00" departDelay="0.74" arrival="431.00" arrivalLane="edgeInLeft_0" arrivalPos="100.00" arrivalSpeed="13.85" duration="21.00" routeLength="209.10" waitingTime="0.00" waitingCount="0" stopTime="0.00" timeLoss="5.14" rerouteNo="0" devices="vehroute_54 tripinfo_54" vType="car" speedFactor="1.00" vaporized=""/>
    <tripinfo id="56" depart="427.00" departLane="edgeOutTop_0" departPos="5.10" departSpeed="0.00" departDelay="0.88" arrival="450.00" arrivalLane="edgeInLeft_0" arrivalPos="100.00" arrivalSpeed="12.46" duration="23.00" routeLength="209.10" waitingTime="0.00" waitingCount="0" stopTime="0.00" timeLoss="4.39" rerouteNo="0" devices="vehroute_56 tripinfo_56" vType="bike" speedFactor="0.90" vaporized=""/>
    <tripinfo id="53" depart="400.00" departLane="edgeOutLeft_0" departPos="5.10" departSpeed="0.00" departDelay="0.04" arrival="465.00" arrivalLane="edgeInRight_0" arrivalPos="100.00" arrivalSpeed="14.19" duration="65.00" routeLength="209.30" waitingTime="42.00" waitingCount="1" stopTime="0.00" timeLoss="50.96" rerouteNo="0" devices="vehroute_53 tripinfo_53" vType="bus" speedFactor="1.10" vaporized=""/>
    <tripinfo id="52" depart="393.00" departLane="edgeOutRight_0" departPos="5.10" departSpeed="0.00" departDelay="0.28" arrival="466.00" arrivalLane="edgeInLeft_0" arrivalPos="100.00" arrivalSpeed="13.04" duration="73.00" routeLength="209.30" waitingTime="47.00" waitingCount="1" stopTime="0.00" timeLoss="57.83" rerouteNo="0" devices="vehroute_52 tripinfo_52" vType="car" speedFactor="1.02" vaporized=""/>
    <tripinfo id="55" depart="419.00" departLane="edgeOutRight_0" departPos="5.10" departSpeed="0.00" departDelay="0.62" arrival="469.00" arrivalLane="edgeInBottom_0" arrivalPos="100.00" arrivalSpeed="13.05" duration="50.00" routeLength="203.93" waitingTime="24.00" waitingCount="1" stopTime="0.00" timeLoss="33.62" rerouteNo="0" devices="vehroute_55 tripinfo_55" vType="car" speedFactor="1.00" vaporized=""/>
    <tripinfo id="57" depart="435.00" departLane="edgeOutLeft_0" departPos="5.10" departSpeed="0.00" departDelay="0.43" arrival="470.00" arrivalLane="edgeInBottom_0" arrivalPos="100.00" arrivalSpeed="14.87" duration="35.00" routeLength="209.10" waitingTime="8.00" waitingCount="1" stopTime="0.00" timeLoss="21.20" rerouteNo="0" devices="vehroute_57 tripinfo_57" vType="bike" speedFactor="1.14" vaporized=""/>
    <tripinfo id="59" depart="451.00" departLane="edgeOutLeft_0" departPos="5.10" departSpeed="0.00" departDelay="0.38" arrival="474.00" arrivalLane="edgeInBottom_0" arrivalPos="100.00" arrivalSpeed="12.71" duration="23.00" routeLength="209.10" waitingTime="0.00" waitingCount="0" stopTime="0.00" timeLoss="5.99" rerouteNo="0" devices="vehroute_59 tripinfo_59" vType="car" speedFactor="0.97" vaporized=""/>
    <tripinfo id="60" depart="456.00" departLane="edgeOutLeft_0" departPos="5.10" departSpeed="0.00" departDelay="0.36" arrival="474.00" arrivalLane="edgeInRight_0" arrivalPos="100.00" arrivalSpeed="14.48" duration="18.00" routeLength="209.30" waitingTime="0.00" waitingCount="0" stopTime="0.00" timeLoss="3.39" rerouteNo="0" devices="vehroute_60 tripinfo_60" vType="car" speedFactor="1.08" vaporized=""/>
    <tripinfo id="61" depart="465.00" departLane="edgeOutRight_0" departPos="5.10" departSpeed="0.00" departDelay="1.33" arrival="483.00" arrivalLane="edgeInLeft_0" arrivalPos="100.00" arrivalSpeed="14.46" duration="18.00" routeLength="209.30" waitingTime="0.00" waitingCount="0" stopTime="0.00" timeLoss="3.73" rerouteNo="0" devices="vehroute_61 tripinfo_61" vType="bike" speedFactor="1.12" vaporized=""/>
    <tripinfo id="62" depart="474.00" departLane="edgeOutRight_0" departPos="5.10" departSpeed="0.00" departDelay="2.27" arrival="495.00" arrivalLane="edgeInBottom_0" arrivalPos="100.00" arrivalSpeed="13.56" duration="21.00" routeLength="203.93" waitingTime="0.00" waitingCount="0" stopTime="0.00" timeLoss="5.50" rerouteNo="0" devices="vehroute_62 tripinfo_62" vType="bike" speedFactor="1.02" vaporized=""/>
    <tripinfo id="64" depart="486.00" departLane="edgeOutLeft_0" departPos="5.10" departSpeed="0.00" departDelay="0.90" arrival="506.00" arrivalLane="edgeInRight_0" arrivalPos="100.00" arrivalSpeed="12.25" duration="20.00" routeLength="209.30" waitingTime="0.00" waitingCount="0" stopTime="0.00" timeLoss="3.61" rerouteNo="0" devices="vehroute_64 tripinfo_64" vType="bus" speedFactor="0.94" vaporized=""/>
    <tripinfo id="67" depart="504.00" departLane="edgeOutLeft_0" departPos="5.10" departSpeed="0.00" departDelay="0.34" arrival="526.00" arrivalLane="edgeInBottom_0" arrivalPos="100.00" arrivalSpeed="11.70" duration="22.00" routeLength="209.10" waitingTime="0.00" waitingCount="0" stopTime="0.00" timeLoss="4.65" rerouteNo="0" devices="vehroute_67 tripinfo_67" vType="car" speedFactor="0.91" vaporized=""/>
    <tripinfo id="58" depart="441.00" departLane="edgeOutBottom_0" departPos="5.10" departSpeed="0.00" departDelay="0.19" arrival="531.00" arrivalLane="edgeInLeft_0" arrivalPos="100.00" arrivalSpeed="13.36" duration="90.00" routeLength="203.93" waitingTime="65.00" waitingCount="1" stopTime="0.00" timeLoss="74.69" rerouteNo="0" devices="vehroute_58 tripinfo_58" vType="bus" speedFactor="1.02" vaporized=""/>
    <tripinfo id="65" depart="493.00" departLane="edgeOutTop_0" departPos="5.10" departSpeed="0.00" departDelay="0.54" arrival="532.00" arrivalLane="edgeInBottom_0" arrivalPos="100.00" arrivalSpeed="11.57" duration="39.00" routeLength="209.30" waitingTime="14.00" waitingCount="1" stopTime="0.00" timeLoss="21.59" rerouteNo="0" devices="vehroute_65 tripinfo_65" vType="car" speedFactor="0.88" vaporized=""/>
    <tripinfo id="63" depart="479.00" departLane="edgeOutBottom_0" departPos="5.10" departSpeed="0.00" departDelay="0.96" arrival="533.00" arrivalLane="edgeInTop_0" arrivalPos="100.00" arrivalSpeed="13.67" duration="54.00" routeLength="209.30" waitingTime="29.00" waitingCount="1" stopTime="0.00" timeLoss="38.57" rerouteNo="0" devices="vehroute_63 tripinfo_63" vType="car" speedFactor="0.99" vaporized=""/>
    <tripinfo id="68" depart="514.00" departLane="edgeOutTop_0" departPos="5.10" departSpeed="0.00" departDelay="0.88" arrival="534.00" arrivalLane="edgeInBottom_0" arrivalPos="100.00" arrivalSpeed="14.13" duration="20.00" routeLength="209.30" waitingTime="0.00" waitingCount="0" stopTime="0.00" timeLoss="4.84" rerouteNo="0" devices="vehroute_68 tripinfo_68" vType="bike" speedFactor="1.04" vaporized=""/>
    <tripinfo id="66" depart="498.00" departLane="edgeOutBottom_0" departPos="5.10" departSpeed="0.00" departDelay="0.09" arrival="536.00" arrivalLane="edgeInTop_0" arrivalPos="100.00" arrivalSpeed="11.31" duration="38.00" routeLength="209.30" waitingTime="11.00" waitingCount="1" stopTime="0.00" timeLoss="20.73" rerouteNo="0" devices="vehroute_66 tripinfo_66" vType="bus" speedFactor="0.91" vaporized=""/>
    <tripinfo id="69" depart="522.00" departLane="edgeOutBottom_0" departPos="5.10" departSpeed="0.00" departDelay="0.63" arrival="544.00" arrivalLane="edgeInLeft_0" arrivalPos="100.00" arrivalSpeed="12.98" duration="22.00" routeLength="203.93" waitingTime="0.00" waitingCount="0" stopTime="0.00" timeLoss="6.54" rerouteNo="0" devices="vehroute_69 tripinfo_69" vType="bike" speedFactor="1.02" vaporized=""/>
    <tripinfo id="72" depart="541.00" departLane="edgeOutTop_0" departPos="5.10" departSpeed="0.00" departDelay="0.61" arrival="563.00" arrivalLane="edgeInLeft_0" arrivalPos="100.00" arrivalSpeed="12.54" duration="22.00" routeLength="209.10" waitingTime="0.00" waitingCount="0" stopTime="0.00" timeLoss="4.63" rerouteNo="0" devices="vehroute_72 tripinfo_72" vType="bike" speedFactor="0.94" vaporized=""/>