<?xml version="1.0" encoding="UTF-8"?>

<!-- generated on 2024-02-09 11:43:53 by Eclipse SUMO GUI Version 1.19.0
<configuration xmlns:xsi="http://www.w3.org/2001/XMLSchema-instance" xsi:noNamespaceSchemaLocation="http://sumo.dlr.de/xsd/sumoConfiguration.xsd">

    <input>
        <net-file value="network.net.xml"/>
        <route-files value="routes.rou.xml"/>
    </input>

    <output>
        <queue-output value="output/queues.xml"/>
        <summary-output value="output/summary.xml"/>
        <tripinfo-output value="output/tripinfo.xml"/>
        <vehroute-output value="output/vehroutes.xml"/>
    </output>

    <time>
        <begin value="0"/>
        <end value="2000"/>
    </time>

</configuration>
-->

<tripinfos xmlns:xsi="http://www.w3.org/2001/XMLSchema-instance" xsi:noNamespaceSchemaLocation="http://sumo.dlr.de/xsd/tripinfo_file.xsd">
    <tripinfo id="veh00" depart="1.00" departLane="edgeOutTop_0" departPos="5.10" departSpeed="10.00" departDelay="0.00" arrival="16.00" arrivalLane="edgeInBottom_0" arrivalPos="100.00" arrivalSpeed="14.42" duration="15.00" routeLength="209.30" waitingTime="0.00" waitingCount="0" stopTime="0.00" timeLoss="0.78" rerouteNo="0" devices="vehroute_veh00 tripinfo_veh00" vType="car" speedFactor="1.06" vaporized=""/>
    <tripinfo id="veh01" depart="3.00" departLane="edgeOutTop_0" departPos="5.10" departSpeed="10.00" departDelay="1.00" arrival="22.00" arrivalLane="edgeInRight_0" arrivalPos="100.00" arrivalSpeed="13.45" duration="19.00" routeLength="203.93" waitingTime="0.00" waitingCount="0" stopTime="0.00" timeLoss="2.56" rerouteNo="0" devices="vehroute_veh01 tripinfo_veh01" vType="bus" speedFactor="1.01" vaporized=""/>
    <tripinfo id="veh02" depart="4.00" departLane="edgeOutTop_0" departPos="5.10" departSpeed="10.00" departDelay="1.00" arrival="26.00" arrivalLane="edgeInLeft_0" arrivalPos="100.00" arrivalSpeed="11.10" duration="22.00" routeLength="209.10" waitingTime="0.00" waitingCount="0" stopTime="0.00" timeLoss="3.19" rerouteNo="0" devices="vehroute_veh02 tripinfo_veh02" vType="car" speedFactor="0.86" vaporized=""/>
    <tripinfo id="veh04" depart="1.00" departLane="edgeOutBottom_0" departPos="5.10" departSpeed="10.00" departDelay="0.00" arrival="27.00" arrivalLane="edgeInRight_0" arrivalPos="100.00" arrivalSpeed="11.86" duration="26.00" routeLength="209.10" waitingTime="4.00" waitingCount="1" stopTime="0.00" timeLoss="9.01" rerouteNo="0" devices="vehroute_veh04 tripinfo_veh04" vType="car" speedFactor="0.94" vaporized=""/>
    <tripinfo id="veh03" depart="3.00" departLane="edgeOutBottom_0" departPos="5.10" departSpeed="10.00" departDelay="1.00" arrival="28.00" arrivalLane="edgeInTop_0" arrivalPos="100.00" arrivalSpeed="13.95" duration="25.00" routeLength="209.30" waitingTime="2.00" waitingCount="1" stopTime="0.00" timeLoss="10.58" rerouteNo="0" devices="vehroute_veh03 tripinfo_veh03" vType="car" speedFactor="1.08" vaporized=""/>
    <tripinfo id="veh05" depart="5.00" departLane="edgeOutBottom_0" departPos="5.10" departSpeed="10.00" departDelay="3.00" arrival="30.00" arrivalLane="edgeInLeft_0" arrivalPos="100.00" arrivalSpeed="13.40" duration="25.00" routeLength="203.93" waitingTime="1.00" waitingCount="1" stopTime="0.00" timeLoss="10.08" rerouteNo="0" devices="vehroute_veh05 tripinfo_veh05" vType="bike" speedFactor="1.03" vaporized=""/>
    <tripinfo id="veh06" depart="2.00" departLane="edgeOutRight_0" departPos="5.10" departSpeed="10.00" departDelay="0.00" arrival="61.00" arrivalLane="edgeInTop_0" arrivalPos="100.00" arrivalSpeed="11.19" duration="59.00" routeLength="209.10" waitingTime="34.00" waitingCount="2" stopTime="0.00" timeLoss="39.72" rerouteNo="0" devices="vehroute_veh06 tripinfo_veh06" vType="bus" speedFactor="0.83" vaporized=""/>
    <tripinfo id="veh08" depart="4.00" departLane="edgeOutRight_0" departPos="5.10" departSpeed="10.00" departDelay="2.00" arrival="61.00" arrivalLane="edgeInLeft_0" arrivalPos="100.00" arrivalSpeed="13.84" duration="57.00" routeLength="209.30" waitingTime="30.00" waitingCount="1" stopTime="0.00" timeLoss="42.57" rerouteNo="0" devices="vehroute_veh08 tripinfo_veh08" vType="car" speedFactor="1.05" vaporized=""/>
    <tripinfo id="veh07" depart="6.00" departLane="edgeOutRight_0" departPos="5.10" departSpeed="10.00" departDelay="3.00" arrival="65.00" arrivalLane="edgeInBottom_0" arrivalPos="100.00" arrivalSpeed="12.42" duration="59.00" routeLength="203.93" waitingTime="28.00" waitingCount="1" stopTime="0.00" timeLoss="41.80" rerouteNo="0" devices="vehroute_veh07 tripinfo_veh07" vType="bus" speedFactor="0.94" vaporized=""/>
    <tripinfo id="veh10" depart="2.00" departLane="edgeOutLeft_0" departPos="5.10" departSpeed="10.00" departDelay="0.00" arrival="68.00" arrivalLane="edgeInBottom_0" arrivalPos="100.00" arrivalSpeed="12.04" duration="66.00" routeLength="209.10" waitingTime="40.00" waitingCount="2" stopTime="0.00" timeLoss="47.53" rerouteNo="0" devices="vehroute_veh10 tripinfo_veh10" vType="bike" speedFactor="0.89" vaporized=""/>
    <tripinfo id="veh11" depart="4.00" departLane="edgeOutLeft_0" departPos="5.10" departSpeed="10.00" departDelay="1.00" arrival="68.00" arrivalLane="edgeInRight_0" arrivalPos="100.00" arrivalSpeed="14.80" duration="64.00" routeLength="209.30" waitingTime="38.00" waitingCount="2" stopTime="0.00" timeLoss="49.47" rerouteNo="0" devices="vehroute_veh11 tripinfo_veh11" vType="bike" speedFactor="1.09" vaporized=""/>
    <tripinfo id="veh09" depart="6.00" departLane="edgeOutLeft_0" departPos="5.10" departSpeed="10.00" departDelay="2.00" arrival="70.00" arrivalLane="edgeInTop_0" arrivalPos="100.00" arrivalSpeed="13.47" duration="64.00" routeLength="203.93" waitingTime="35.00" waitingCount="2" stopTime="0.00" timeLoss="48.79" rerouteNo="0" devices="vehroute_veh09 tripinfo_veh09" vType="car" speedFactor="1.03" vaporized=""/>
</tripinfos>
