<?xml version="1.0" encoding="UTF-8"?>

<!-- generated on 2024-02-09 16:06:36 by Eclipse SUMO GUI Version 1.19.0
<configuration xmlns:xsi="http://www.w3.org/2001/XMLSchema-instance" xsi:noNamespaceSchemaLocation="http://sumo.dlr.de/xsd/sumoConfiguration.xsd">

    <input>
        <net-file value="network.net.xml"/>
        <route-files value="sorted_random_route.rou.xml"/>
    </input>

    <output>
        <queue-output value="output/queues.xml"/>
        <summary-output value="output/summary.xml"/>
        <tripinfo-output value="output/tripinfo.xml"/>
        <vehroute-output value="output/vehroutes.xml"/>
    </output>

    <time>
        <begin value="0"/>
        <end value="2000"/>
    </time>

</configuration>
-->

<routes xmlns:xsi="http://www.w3.org/2001/XMLSchema-instance" xsi:noNamespaceSchemaLocation="http://sumo.dlr.de/xsd/routes_file.xsd">
    <vehicle id="4" type="bus" depart="32.00" arrival="51.00">
        <route edges="edgeOutTop edgeInBottom"/>
    </vehicle>

    <vehicle id="5" type="car" depart="40.00" arrival="62.00">
        <route edges="edgeOutTop edgeInBottom"/>
    </vehicle>

    <vehicle id="0" type="bus" depart="6.00" arrival="76.00">
        <route edges="edgeOutLeft edgeInTop"/>
    </vehicle>

    <vehicle id="1" type="bike" depart="12.00" arrival="79.00">
        <route edges="edgeOutLeft edgeInBottom"/>
    </vehicle>

    <vehicle id="2" type="bike" depart="18.00" arrival="80.00">
        <route edges="edgeOutLeft edgeInRight"/>
    </vehicle>

    <vehicle id="3" type="car" depart="26.00" arrival="82.00">
        <route edges="edgeOutLeft edgeInRight"/>
    </vehicle>

    <vehicle id="6" type="bus" depart="46.00" arrival="85.00">
        <route edges="edgeOutLeft edgeInTop"/>
    </vehicle>

    <vehicle id="7" type="bike" depart="53.00" arrival="90.00">
        <route edges="edgeOutLeft edgeInBottom"/>
    </vehicle>

    <vehicle id="10" type="bus" depart="77.00" arrival="97.00">
        <route edges="edgeOutLeft edgeInTop"/>
    </vehicle>

    <vehicle id="11" type="car" depart="85.00" arrival="106.00">
        <route edges="edgeOutRight edgeInBottom"/>
    </vehicle>

    <vehicle id="12" type="car" depart="93.00" arrival="112.00">
        <route edges="edgeOutLeft edgeInRight"/>
    </vehicle>

    <vehicle id="13" type="bus" depart="102.00" arrival="122.00">
        <route edges="edgeOutLeft edgeInBottom"/>
    </vehicle>

    <vehicle id="14" type="bus" depart="107.00" arrival="127.00">
        <route edges="edgeOutLeft edgeInRight"/>
    </vehicle>

    <vehicle id="9" type="car" depart="69.00" arrival="142.00">
        <route edges="edgeOutBottom edgeInLeft"/>
    </vehicle>

    <vehicle id="8" type="bike" depart="62.00" arrival="144.00">
        <route edges="edgeOutTop edgeInLeft"/>
    </vehicle>

    <vehicle id="18" type="car" depart="135.00" arrival="157.00">
        <route edges="edgeOutTop edgeInRight"/>
    </vehicle>

    <vehicle id="19" type="car" depart="144.00" arrival="164.00">
        <route edges="edgeOutTop edgeInRight"/>
    </vehicle>

    <vehicle id="20" type="bus" depart="154.00" arrival="175.00">
        <route edges="edgeOutTop edgeInRight"/>
    </vehicle>

    <vehicle id="21" type="car" depart="159.00" arrival="180.00">
        <route edges="edgeOutTop edgeInRight"/>
    </vehicle>

    <vehicle id="15" type="car" depart="117.00" arrival="206.00">
        <route edges="edgeOutRight edgeInBottom"/>
    </vehicle>

    <vehicle id="16" type="bus" depart="123.00" arrival="207.00">
        <route edges="edgeOutLeft edgeInRight"/>
    </vehicle>

    <vehicle id="17" type="bus" depart="129.00" arrival="209.00">
        <route edges="edgeOutRight edgeInTop"/>
    </vehicle>

    <vehicle id="22" type="car" depart="168.00" arrival="211.00">
        <route edges="edgeOutRight edgeInBottom"/>
    </vehicle>

    <vehicle id="23" type="car" depart="175.00" arrival="213.00">
        <route edges="edgeOutRight edgeInLeft"/>
    </vehicle>

    <vehicle id="28" type="bike" depart="215.00" arrival="233.00">
        <route edges="edgeOutLeft edgeInRight"/>
    </vehicle>

    <vehicle id="29" type="car" depart="222.00" arrival="244.00">
        <route edges="edgeOutRight edgeInTop"/>
    </vehicle>

    <vehicle id="31" type="car" depart="236.00" arrival="255.00">
        <route edges="edgeOutRight edgeInBottom"/>
    </vehicle>

    <vehicle id="32" type="bike" depart="243.00" arrival="264.00">
        <route edges="edgeOutLeft edgeInTop"/>
    </vehicle>

    <vehicle id="24" type="bike" depart="183.00" arrival="273.00">
        <route edges="edgeOutTop edgeInBottom"/>
    </vehicle>

    <vehicle id="25" type="bus" depart="192.00" arrival="274.00">
        <route edges="edgeOutTop edgeInBottom"/>
    </vehicle>

    <vehicle id="27" type="bike" depart="209.00" arrival="276.00">
        <route edges="edgeOutTop edgeInLeft"/>
    </vehicle>

    <vehicle id="30" type="car" depart="227.00" arrival="276.00">
        <route edges="edgeOutTop edgeInBottom"/>
    </vehicle>

    <vehicle id="26" type="car" depart="199.00" arrival="282.00">
        <route edges="edgeOutBottom edgeInRight"/>
    </vehicle>

    <vehicle id="33" type="bus" depart="251.00" arrival="283.00">
        <route edges="edgeOutBottom edgeInTop"/>
    </vehicle>

    <vehicle id="38" type="car" depart="287.00" arrival="305.00">
        <route edges="edgeOutBottom edgeInTop"/>
    </vehicle>

    <vehicle id="40" type="car" depart="299.00" arrival="320.00">
        <route edges="edgeOutBottom edgeInRight"/>
    </vehicle>

    <vehicle id="41" type="bike" depart="309.00" arrival="331.00">
        <route edges="edgeOutBottom edgeInRight"/>
    </vehicle>

    <vehicle id="34" type="car" depart="260.00" arrival="336.00">
        <route edges="edgeOutRight edgeInLeft"/>
    </vehicle>

    <vehicle id="35" type="car" depart="265.00" arrival="339.00">
        <route edges="edgeOutRight edgeInBottom"/>
    </vehicle>

    <vehicle id="36" type="car" depart="272.00" arrival="342.00">
        <route edges="edgeOutRight edgeInTop"/>
    </vehicle>

    <vehicle id="39" type="car" depart="292.00" arrival="344.00">
        <route edges="edgeOutRight edgeInBottom"/>
    </vehicle>

    <vehicle id="42" type="bike" depart="320.00" arrival="345.00">
        <route edges="edgeOutRight edgeInLeft"/>
    </vehicle>

    <vehicle id="37" type="car" depart="277.00" arrival="349.00">
        <route edges="edgeOutLeft edgeInBottom"/>
    </vehicle>

    <vehicle id="43" type="bike" depart="325.00" arrival="350.00">
        <route edges="edgeOutLeft edgeInRight"/>
    </vehicle>

    <vehicle id="44" type="car" depart="330.00" arrival="353.00">
        <route edges="edgeOutLeft edgeInBottom"/>
    </vehicle>

    <vehicle id="46" type="car" depart="345.00" arrival="364.00">
        <route edges="edgeOutLeft edgeInRight"/>
    </vehicle>

    <vehicle id="47" type="bike" depart="351.00" arrival="372.00">
        <route edges="edgeOutLeft edgeInRight"/>
    </vehicle>

    <vehicle id="45" type="bus" depart="339.00" arrival="401.00">
        <route edges="edgeOutTop edgeInBottom"/>
    </vehicle>

    <vehicle id="48" type="car" depart="357.00" arrival="402.00">
        <route edges="edgeOutBottom edgeInTop"/>
    </vehicle>

    <vehicle id="50" type="bike" depart="374.00" arrival="404.00">
        <route edges="edgeOutBottom edgeInTop"/>
    </vehicle>

    <vehicle id="49" type="car" depart="365.00" arrival="409.00">
        <route edges="edgeOutTop edgeInLeft"/>
    </vehicle>

    <vehicle id="51" type="car" depart="384.00" arrival="410.00">
        <route edges="edgeOutTop edgeInLeft"/>
    </vehicle>

    <vehicle id="54" type="car" depart="410.00" arrival="431.00">
        <route edges="edgeOutTop edgeInLeft"/>
    </vehicle>

    <vehicle id="56" type="bike" depart="427.00" arrival="450.00">
        <route edges="edgeOutTop edgeInLeft"/>
    </vehicle>

    <vehicle id="53" type="bus" depart="400.00" arrival="465.00">
        <route edges="edgeOutLeft edgeInRight"/>
    </vehicle>

    <vehicle id="52" type="car" depart="393.00" arrival="466.00">
        <route edges="edgeOutRight edgeInLeft"/>
    </vehicle>

    <vehicle id="55" type="car" depart="419.00" arrival="469.00">
        <route edges="edgeOutRight edgeInBottom"/>
    </vehicle>

    <vehicle id="57" type="bike" depart="435.00" arrival="470.00">
        <route edges="edgeOutLeft edgeInBottom"/>
    </vehicle>

    <vehicle id="59" type="car" depart="451.00" arrival="474.00">
        <route edges="edgeOutLeft edgeInBottom"/>
    </vehicle>

    <vehicle id="60" type="car" depart="456.00" arrival="474.00">
        <route edges="edgeOutLeft edgeInRight"/>
    </vehicle>

    <vehicle id="61" type="bike" depart="465.00" arrival="483.00">
        <route edges="edgeOutRight edgeInLeft"/>
    </vehicle>

    <vehicle id="62" type="bike" depart="474.00" arrival="495.00">
        <route edges="edgeOutRight edgeInBottom"/>
    </vehicle>

    <vehicle id="64" type="bus" depart="486.00" arrival="506.00">
        <route edges="edgeOutLeft edgeInRight"/>
    </vehicle>

    <vehicle id="67" type="car" depart="504.00" arrival="526.00">
        <route edges="edgeOutLeft edgeInBottom"/>
    </vehicle>

    <vehicle id="58" type="bus" depart="441.00" arrival="531.00">
        <route edges="edgeOutBottom edgeInLeft"/>
    </vehicle>

    <vehicle id="65" type="car" depart="493.00" arrival="532.00">
        <route edges="edgeOutTop edgeInBottom"/>
    </vehicle>

    <vehicle id="63" type="car" depart="479.00" arrival="533.00">
        <route edges="edgeOutBottom edgeInTop"/>
    </vehicle>

    <vehicle id="68" type="bike" depart="514.00" arrival="534.00">
        <route edges="edgeOutTop edgeInBottom"/>
    </vehicle>

    <vehicle id="66" type="bus" depart="498.00" arrival="536.00">
        <route edges="edgeOutBottom edgeInTop"/>
    </vehicle>

    <vehicle id="69" type="bike" depart="522.00" arrival="544.00">
        <route edges="edgeOutBottom edgeInLeft"/>
    </vehicle>

    <vehicle id="72" type="bike" depart="541.00" arrival="563.00">
        <route edges="edgeOutTop edgeInLeft"/>
    </vehicle>

    <vehicle id="74" type="car" depart="560.00" arrival="579.00">
        <route edges="edgeOutTop edgeInBottom"/>
    </vehicle>

    <vehicle id="70" type="car" depart="528.00" arrival="595.00">
        <route edges="edgeOutLeft edgeInTop"/>
    </vehicle>

    <vehicle id="73" type="bike" depart="550.00" arrival="598.00">
        <route edges="edgeOutLeft edgeInRight"/>
    </vehicle>

    <vehicle id="75" type="bike" depart="567.00" arrival="601.00">
        <route edges="edgeOutLeft edgeInTop"/>
    </vehicle>

    <vehicle id="71" type="bus" depart="536.00" arrival="603.00">
        <route edges="edgeOutRight edgeInTop"/>
    </vehicle>

    <vehicle id="76" type="bike" depart="574.00" arrival="606.00">
        <route edges="edgeOutRight edgeInLeft"/>
    </vehicle>

    <vehicle id="78" type="bike" depart="591.00" arrival="610.00">
        <route edges="edgeOutLeft edgeInRight"/>
    </vehicle>

    <vehicle id="80" type="bus" depart="603.00" arrival="623.00">
        <route edges="edgeOutRight edgeInTop"/>
    </vehicle>

    <vehicle id="81" type="bus" depart="610.00" arrival="632.00">
        <route edges="edgeOutLeft edgeInTop"/>
    </vehicle>

    <vehicle id="82" type="car" depart="616.00" arrival="635.00">
        <route edges="edgeOutLeft edgeInRight"/>
    </vehicle>

    <vehicle id="84" type="car" depart="631.00" arrival="648.00">
        <route edges="edgeOutLeft edgeInRight"/>
    </vehicle>

    <vehicle id="77" type="bus" depart="584.00" arrival="661.00">
        <route edges="edgeOutTop edgeInBottom"/>
    </vehicle>

    <vehicle id="79" type="bus" depart="596.00" arrival="661.00">
        <route edges="edgeOutBottom edgeInLeft"/>
    </vehicle>

    <vehicle id="83" type="car" depart="622.00" arrival="664.00">
        <route edges="edgeOutBottom edgeInRight"/>
    </vehicle>

    <vehicle id="91" type="car" depart="684.00" arrival="707.00">
        <route edges="edgeOutTop edgeInLeft"/>
    </vehicle>

    <vehicle id="85" type="car" depart="639.00" arrival="726.00">
        <route edges="edgeOutLeft edgeInTop"/>
    </vehicle>

    <vehicle id="86" type="car" depart="645.00" arrival="727.00">
        <route edges="edgeOutRight edgeInBottom"/>
    </vehicle>

    <vehicle id="87" type="bus" depart="651.00" arrival="728.00">
        <route edges="edgeOutLeft edgeInRight"/>
    </vehicle>

    <vehicle id="90" type="car" depart="674.00" arrival="728.00">
        <route edges="edgeOutRight edgeInBottom"/>
    </vehicle>

    <vehicle id="95" type="car" depart="712.00" arrival="731.00">
        <route edges="edgeOutRight edgeInLeft"/>
    </vehicle>

    <vehicle id="88" type="bike" depart="661.00" arrival="735.00">
        <route edges="edgeOutLeft edgeInBottom"/>
    </vehicle>

    <vehicle id="89" type="bike" depart="666.00" arrival="736.00">
        <route edges="edgeOutLeft edgeInTop"/>
    </vehicle>

    <vehicle id="92" type="bike" depart="689.00" arrival="741.00">
        <route edges="edgeOutLeft edgeInBottom"/>
    </vehicle>

    <vehicle id="93" type="bus" depart="698.00" arrival="743.00">
        <route edges="edgeOutLeft edgeInBottom"/>
    </vehicle>

    <vehicle id="99" type="car" depart="744.00" arrival="764.00">
        <route edges="edgeOutLeft edgeInTop"/>
    </vehicle>

    <vehicle id="101" type="car" depart="761.00" arrival="784.00">
        <route edges="edgeOutRight edgeInTop"/>
    </vehicle>

    <vehicle id="94" type="bike" depart="705.00" arrival="791.00">
        <route edges="edgeOutTop edgeInRight"/>
    </vehicle>

    <vehicle id="98" type="bike" depart="738.00" arrival="793.00">
        <route edges="edgeOutTop edgeInBottom"/>
    </vehicle>

    <vehicle id="96" type="bike" depart="722.00" arrival="798.00">
        <route edges="edgeOutBottom edgeInRight"/>
    </vehicle>

    <vehicle id="97" type="car" depart="732.00" arrival="801.00">
        <route edges="edgeOutBottom edgeInRight"/>
    </vehicle>

    <vehicle id="100" type="car" depart="752.00" arrival="801.00">
        <route edges="edgeOutBottom edgeInTop"/>
    </vehicle>

    <vehicle id="103" type="car" depart="772.00" arrival="805.00">
        <route edges="edgeOutBottom edgeInRight"/>
    </vehicle>

    <vehicle id="110" type="bike" depart="827.00" arrival="849.00">
        <route edges="edgeOutBottom edgeInLeft"/>
    </vehicle>

    <vehicle id="108" type="bike" depart="809.00" arrival="856.00">
        <route edges="edgeOutLeft edgeInTop"/>
    </vehicle>

    <vehicle id="102" type="bus" depart="767.00" arrival="859.00">
        <route edges="edgeOutRight edgeInTop"/>
    </vehicle>

    <vehicle id="104" type="bike" depart="778.00" arrival="861.00">
        <route edges="edgeOutRight edgeInTop"/>
    </vehicle>

    <vehicle id="105" type="bus" depart="788.00" arrival="862.00">
        <route edges="edgeOutRight edgeInLeft"/>
    </vehicle>

    <vehicle id="106" type="bus" depart="795.00" arrival="866.00">
        <route edges="edgeOutRight edgeInBottom"/>
    </vehicle>

    <vehicle id="107" type="car" depart="805.00" arrival="867.00">
        <route edges="edgeOutRight edgeInLeft"/>
    </vehicle>

    <vehicle id="109" type="bus" depart="819.00" arrival="871.00">
        <route edges="edgeOutRight edgeInBottom"/>
    </vehicle>

    <vehicle id="113" type="car" depart="849.00" arrival="872.00">
        <route edges="edgeOutRight edgeInLeft"/>
    </vehicle>

    <vehicle id="112" type="bus" depart="844.00" arrival="876.00">
        <route edges="edgeOutLeft edgeInBottom"/>
    </vehicle>

    <vehicle id="114" type="car" depart="857.00" arrival="878.00">
        <route edges="edgeOutLeft edgeInBottom"/>
    </vehicle>

    <vehicle id="117" type="bike" depart="878.00" arrival="897.00">
        <route edges="edgeOutRight edgeInLeft"/>
    </vehicle>

    <vehicle id="111" type="bus" depart="835.00" arrival="922.00">
        <route edges="edgeOutBottom edgeInLeft"/>
    </vehicle>

    <vehicle id="116" type="bike" depart="872.00" arrival="923.00">
        <route edges="edgeOutBottom edgeInTop"/>
    </vehicle>

    <vehicle id="115" type="bike" depart="864.00" arrival="927.00">
        <route edges="edgeOutTop edgeInLeft"/>
    </vehicle>

    <vehicle id="118" type="bus" depart="888.00" arrival="929.00">
        <route edges="edgeOutTop edgeInLeft"/>
    </vehicle>

    <vehicle id="121" type="car" depart="909.00" arrival="930.00">
        <route edges="edgeOutTop edgeInRight"/>
    </vehicle>

    <vehicle id="123" type="bike" depart="923.00" arrival="943.00">
        <route edges="edgeOutTop edgeInRight"/>
    </vehicle>

    <vehicle id="124" type="car" depart="933.00" arrival="954.00">
        <route edges="edgeOutTop edgeInRight"/>
    </vehicle>

    <vehicle id="127" type="bus" depart="952.00" arrival="976.00">
        <route edges="edgeOutTop edgeInRight"/>
    </vehicle>

    <vehicle id="128" type="bus" depart="959.00" arrival="979.00">
        <route edges="edgeOutTop edgeInRight"/>
    </vehicle>

    <vehicle id="119" type="bus" depart="897.00" arrival="985.00">
        <route edges="edgeOutRight edgeInBottom"/>
    </vehicle>

    <vehicle id="120" type="bike" depart="903.00" arrival="988.00">
        <route edges="edgeOutRight edgeInLeft"/>
    </vehicle>

    <vehicle id="122" type="car" depart="916.00" arrival="990.00">
        <route edges="edgeOutRight edgeInTop"/>
    </vehicle>

    <vehicle id="125" type="bus" depart="939.00" arrival="991.00">
        <route edges="edgeOutRight edgeInLeft"/>
    </vehicle>

    <vehicle id="130" type="bus" depart="974.00" arrival="996.00">
        <route edges="edgeOutLeft edgeInTop"/>
    </vehicle>

    <vehicle id="131" type="bike" depart="982.00" arrival="1001.00">
        <route edges="edgeOutLeft edgeInRight"/>
    </vehicle>

    <vehicle id="126" type="bus" depart="946.00" arrival="1006.00">
        <route edges="edgeOutRight edgeInTop"/>
    </vehicle>

    <vehicle id="132" type="car" depart="991.00" arrival="1011.00">
        <route edges="edgeOutLeft edgeInRight"/>
    </vehicle>

    <vehicle id="133" type="bus" depart="997.00" arrival="1015.00">
        <route edges="edgeOutLeft edgeInRight"/>
    </vehicle>

    <vehicle id="136" type="bus" depart="1022.00" arrival="1042.00">
        <route edges="edgeOutLeft edgeInTop"/>
    </vehicle>

    <vehicle id="129" type="bike" depart="967.00" arrival="1051.00">
        <route edges="edgeOutTop edgeInLeft"/>
    </vehicle>

    <vehicle id="134" type="car" depart="1006.00" arrival="1052.00">
        <route edges="edgeOutTop edgeInRight"/>
    </vehicle>

    <vehicle id="135" type="car" depart="1013.00" arrival="1056.00">
        <route edges="edgeOutTop edgeInRight"/>
    </vehicle>

    <vehicle id="139" type="bike" depart="1050.00" arrival="1070.00">
        <route edges="edgeOutBottom edgeInTop"/>
    </vehicle>

    <vehicle id="141" type="bike" depart="1063.00" arrival="1080.00">
        <route edges="edgeOutTop edgeInBottom"/>
    </vehicle>

    <vehicle id="143" type="car" depart="1081.00" arrival="1099.00">
        <route edges="edgeOutBottom edgeInTop"/>
    </vehicle>

    <vehicle id="137" type="bike" depart="1031.00" arrival="1116.00">
        <route edges="edgeOutRight edgeInLeft"/>
    </vehicle>

    <vehicle id="142" type="bike" depart="1072.00" arrival="1116.00">
        <route edges="edgeOutLeft edgeInRight"/>
    </vehicle>

    <vehicle id="138" type="bus" depart="1041.00" arrival="1118.00">
        <route edges="edgeOutRight edgeInLeft"/>
    </vehicle>

    <vehicle id="144" type="car" depart="1089.00" arrival="1122.00">
        <route edges="edgeOutLeft edgeInTop"/>
    </vehicle>

    <vehicle id="145" type="bike" depart="1097.00" arrival="1123.00">
        <route edges="edgeOutRight edgeInLeft"/>
    </vehicle>

    <vehicle id="140" type="car" depart="1056.00" arrival="1124.00">
        <route edges="edgeOutRight edgeInTop"/>
    </vehicle>

    <vehicle id="146" type="car" depart="1105.00" arrival="1126.00">
        <route edges="edgeOutRight edgeInLeft"/>
    </vehicle>

    <vehicle id="148" type="bike" depart="1121.00" arrival="1140.00">
        <route edges="edgeOutRight edgeInLeft"/>
    </vehicle>

    <vehicle id="149" type="bike" depart="1128.00" arrival="1147.00">
        <route edges="edgeOutLeft edgeInRight"/>
    </vehicle>

    <vehicle id="150" type="car" depart="1134.00" arrival="1156.00">
        <route edges="edgeOutRight edgeInTop"/>
    </vehicle>

    <vehicle id="147" type="bus" depart="1111.00" arrival="1181.00">
        <route edges="edgeOutTop edgeInRight"/>
    </vehicle>

    <vehicle id="151" type="car" depart="1142.00" arrival="1184.00">
        <route edges="edgeOutTop edgeInRight"/>
    </vehicle>

    <vehicle id="152" type="car" depart="1150.00" arrival="1186.00">
        <route edges="edgeOutTop edgeInLeft"/>
    </vehicle>

    <vehicle id="153" type="bike" depart="1157.00" arrival="1189.00">
        <route edges="edgeOutTop edgeInRight"/>
    </vehicle>

    <vehicle id="155" type="bike" depart="1169.00" arrival="1191.00">
        <route edges="edgeOutTop edgeInBottom"/>
    </vehicle>

    <vehicle id="157" type="car" depart="1181.00" arrival="1201.00">
        <route edges="edgeOutTop edgeInRight"/>
    </vehicle>

    <vehicle id="158" type="bus" depart="1190.00" arrival="1211.00">
        <route edges="edgeOutTop edgeInBottom"/>
    </vehicle>

    <vehicle id="160" type="car" depart="1206.00" arrival="1229.00">
        <route edges="edgeOutTop edgeInLeft"/>
    </vehicle>

    <vehicle id="161" type="bus" depart="1214.00" arrival="1235.00">
        <route edges="edgeOutTop edgeInLeft"/>
    </vehicle>

    <vehicle id="156" type="bike" depart="1175.00" arrival="1246.00">
        <route edges="edgeOutLeft edgeInRight"/>
    </vehicle>

    <vehicle id="159" type="bus" depart="1197.00" arrival="1248.00">
        <route edges="edgeOutLeft edgeInTop"/>
    </vehicle>

    <vehicle id="154" type="bike" depart="1163.00" arrival="1252.00">
        <route edges="edgeOutRight edgeInTop"/>
    </vehicle>

    <vehicle id="162" type="bike" depart="1220.00" arrival="1254.00">
        <route edges="edgeOutRight edgeInLeft"/>
    </vehicle>

    <vehicle id="163" type="car" depart="1226.00" arrival="1257.00">
        <route edges="edgeOutLeft edgeInBottom"/>
    </vehicle>

    <vehicle id="166" type="car" depart="1250.00" arrival="1269.00">
        <route edges="edgeOutRight edgeInLeft"/>
    </vehicle>

    <vehicle id="168" type="bus" depart="1266.00" arrival="1288.00">
        <route edges="edgeOutRight edgeInBottom"/>
    </vehicle>

    <vehicle id="169" type="bus" depart="1274.00" arrival="1294.00">
        <route edges="edgeOutRight edgeInLeft"/>
    </vehicle>

    <vehicle id="170" type="bike" depart="1279.00" arrival="1298.00">
        <route edges="edgeOutLeft edgeInRight"/>
    </vehicle>

    <vehicle id="167" type="bike" depart="1258.00" arrival="1311.00">
        <route edges="edgeOutTop edgeInRight"/>
    </vehicle>

    <vehicle id="164" type="bike" depart="1234.00" arrival="1313.00">
        <route edges="edgeOutBottom edgeInRight"/>
    </vehicle>

    <vehicle id="165" type="car" depart="1242.00" arrival="1317.00">
        <route edges="edgeOutBottom edgeInRight"/>
    </vehicle>

    <vehicle id="173" type="car" depart="1304.00" arrival="1323.00">
        <route edges="edgeOutBottom edgeInLeft"/>
    </vehicle>

    <vehicle id="175" type="bus" depart="1319.00" arrival="1341.00">
        <route edges="edgeOutBottom edgeInRight"/>
    </vehicle>

    <vehicle id="176" type="bike" depart="1329.00" arrival="1350.00">
        <route edges="edgeOutTop edgeInLeft"/>
    </vehicle>

    <vehicle id="177" type="bus" depart="1336.00" arrival="1355.00">
        <route edges="edgeOutTop edgeInBottom"/>
    </vehicle>

    <vehicle id="179" type="bus" depart="1347.00" arrival="1365.00">
        <route edges="edgeOutBottom edgeInTop"/>
    </vehicle>

    <vehicle id="171" type="bike" depart="1288.00" arrival="1377.00">
        <route edges="edgeOutRight edgeInBottom"/>
    </vehicle>

    <vehicle id="172" type="car" depart="1294.00" arrival="1377.00">
        <route edges="edgeOutLeft edgeInRight"/>
    </vehicle>

    <vehicle id="178" type="bus" depart="1342.00" arrival="1377.00">
        <route edges="edgeOutRight edgeInLeft"/>
    </vehicle>

    <vehicle id="174" type="bus" depart="1314.00" arrival="1382.00">
        <route edges="edgeOutLeft edgeInBottom"/>
    </vehicle>

    <vehicle id="184" type="bike" depart="1384.00" arrival="1404.00">
        <route edges="edgeOutRight edgeInLeft"/>
    </vehicle>

    <vehicle id="182" type="bus" depart="1371.00" arrival="1441.00">
        <route edges="edgeOutBottom edgeInTop"/>
    </vehicle>

    <vehicle id="180" type="car" depart="1355.00" arrival="1448.00">
        <route edges="edgeOutTop edgeInLeft"/>
    </vehicle>

    <vehicle id="181" type="car" depart="1365.00" arrival="1450.00">
        <route edges="edgeOutTop edgeInBottom"/>
    </vehicle>

    <vehicle id="188" type="bike" depart="1416.00" arrival="1453.00">
        <route edges="edgeOutTop edgeInRight"/>
    </vehicle>

    <vehicle id="190" type="bus" depart="1432.00" arrival="1457.00">
        <route edges="edgeOutTop edgeInLeft"/>
    </vehicle>

    <vehicle id="183" type="bus" depart="1377.00" arrival="1458.00">
        <route edges="edgeOutBottom edgeInRight"/>
    </vehicle>

    <vehicle id="185" type="bus" depart="1391.00" arrival="1461.00">
        <route edges="edgeOutBottom edgeInLeft"/>
    </vehicle>

    <vehicle id="186" type="bike" depart="1398.00" arrival="1461.00">
        <route edges="edgeOutBottom edgeInTop"/>
    </vehicle>

    <vehicle id="191" type="bike" depart="1441.00" arrival="1461.00">
        <route edges="edgeOutTop edgeInBottom"/>
    </vehicle>

    <vehicle id="187" type="bike" depart="1407.00" arrival="1466.00">
        <route edges="edgeOutBottom edgeInRight"/>
    </vehicle>

    <vehicle id="193" type="bike" depart="1458.00" arrival="1479.00">
        <route edges="edgeOutBottom edgeInRight"/>
    </vehicle>

    <vehicle id="194" type="car" depart="1467.00" arrival="1488.00">
        <route edges="edgeOutTop edgeInLeft"/>
    </vehicle>

    <vehicle id="189" type="car" depart="1422.00" arrival="1506.00">
        <route edges="edgeOutLeft edgeInRight"/>
    </vehicle>

    <vehicle id="195" type="bus" depart="1476.00" arrival="1510.00">
        <route edges="edgeOutLeft edgeInTop"/>
    </vehicle>

    <vehicle id="192" type="car" depart="1453.00" arrival="1512.00">
        <route edges="edgeOutRight edgeInTop"/>
    </vehicle>

    <vehicle id="197" type="bus" depart="1493.00" arrival="1515.00">
        <route edges="edgeOutRight edgeInBottom"/>
    </vehicle>

    <vehicle id="200" type="bike" depart="1516.00" arrival="1538.00">
        <route edges="edgeOutRight edgeInBottom"/>
    </vehicle>

    <vehicle id="201" type="bike" depart="1522.00" arrival="1545.00">
        <route edges="edgeOutLeft edgeInTop"/>
    </vehicle>

    <vehicle id="204" type="bus" depart="1545.00" arrival="1565.00">
        <route edges="edgeOutRight edgeInTop"/>
    </vehicle>

    <vehicle id="203" type="bike" depart="1538.00" arrival="1570.00">
        <route edges="edgeOutBottom edgeInLeft"/>
    </vehicle>

    <vehicle id="196" type="bus" depart="1485.00" arrival="1573.00">
        <route edges="edgeOutTop edgeInLeft"/>
    </vehicle>

    <vehicle id="198" type="car" depart="1499.00" arrival="1574.00">
        <route edges="edgeOutTop edgeInRight"/>
    </vehicle>

    <vehicle id="199" type="car" depart="1507.00" arrival="1580.00">
        <route edges="edgeOutTop edgeInRight"/>
    </vehicle>

    <vehicle id="202" type="bike" depart="1529.00" arrival="1580.00">
        <route edges="edgeOutTop edgeInBottom"/>
    </vehicle>

    <vehicle id="207" type="bus" depart="1568.00" arrival="1590.00">
        <route edges="edgeOutBottom edgeInLeft"/>
    </vehicle>

    <vehicle id="208" type="bike" depart="1575.00" arrival="1597.00">
        <route edges="edgeOutTop edgeInLeft"/>
    </vehicle>

    <vehicle id="210" type="bike" depart="1587.00" arrival="1605.00">
        <route edges="edgeOutBottom edgeInTop"/>
    </vehicle>

    <vehicle id="209" type="bike" depart="1580.00" arrival="1636.00">
        <route edges="edgeOutLeft edgeInRight"/>
    </vehicle>

    <vehicle id="211" type="bike" depart="1593.00" arrival="1638.00">
        <route edges="edgeOutLeft edgeInRight"/>
    </vehicle>

    <vehicle id="212" type="car" depart="1602.00" arrival="1641.00">
        <route edges="edgeOutLeft edgeInTop"/>
    </vehicle>

    <vehicle id="205" type="bike" depart="1555.00" arrival="1644.00">
        <route edges="edgeOutRight edgeInTop"/>
    </vehicle>

    <vehicle id="206" type="car" depart="1561.00" arrival="1645.00">
        <route edges="edgeOutRight edgeInBottom"/>
    </vehicle>

    <vehicle id="214" type="bike" depart="1620.00" arrival="1650.00">
        <route edges="edgeOutRight edgeInTop"/>
    </vehicle>

    <vehicle id="217" type="bus" depart="1640.00" arrival="1658.00">
        <route edges="edgeOutRight edgeInLeft"/>
    </vehicle>

    <vehicle id="218" type="bus" depart="1647.00" arrival="1667.00">
        <route edges="edgeOutLeft edgeInTop"/>
    </vehicle>

    <vehicle id="220" type="bus" depart="1660.00" arrival="1679.00">
        <route edges="edgeOutRight edgeInLeft"/>
    </vehicle>

    <vehicle id="213" type="bus" depart="1612.00" arrival="1701.00">
        <route edges="edgeOutBottom edgeInLeft"/>
    </vehicle>

    <vehicle id="215" type="car" depart="1625.00" arrival="1703.00">
        <route edges="edgeOutBottom edgeInLeft"/>
    </vehicle>

    <vehicle id="219" type="car" depart="1652.00" arrival="1706.00">
        <route edges="edgeOutBottom edgeInTop"/>
    </vehicle>
