<?xml version="1.0" encoding="UTF-8"?>

<!-- generated on 2024-02-09 15:48:10 by Eclipse SUMO GUI Version 1.19.0
<configuration xmlns:xsi="http://www.w3.org/2001/XMLSchema-instance" xsi:noNamespaceSchemaLocation="http://sumo.dlr.de/xsd/sumoConfiguration.xsd">

    <input>
        <net-file value="network.net.xml"/>
        <route-files value="routes.rou.xml"/>
    </input>

    <output>
        <queue-output value="output/queues.xml"/>
        <summary-output value="output/summary.xml"/>
        <tripinfo-output value="output/tripinfo.xml"/>
        <vehroute-output value="output/vehroutes.xml"/>
    </output>

    <time>
        <begin value="0"/>
        <end value="2000"/>
    </time>

</configuration>
-->

<routes xmlns:xsi="http://www.w3.org/2001/XMLSchema-instance" xsi:noNamespaceSchemaLocation="http://sumo.dlr.de/xsd/routes_file.xsd">
    <vehicle id="0" type="car" depart="0.00" arrival="18.00">
        <route edges="edgeOutBottom edgeInTop"/>
    </vehicle>

    <vehicle id="2" type="bus" depart="2.00" arrival="21.00">
        <route edges="edgeOutTop edgeInBottom"/>
    </vehicle>

    <vehicle id="3" type="car" depart="3.00" arrival="24.00">
        <route edges="edgeOutBottom edgeInRight"/>
    </vehicle>

    <vehicle id="10" type="bus" depart="10.00" arrival="30.00">
        <route edges="edgeOutTop edgeInRight"/>
    </vehicle>

    <vehicle id="9" type="bus" depart="9.00" arrival="32.00">
        <route edges="edgeOutBottom edgeInLeft"/>
    </vehicle>

    <vehicle id="13" type="bike" depart="13.00" arrival="32.00">
        <route edges="edgeOutBottom edgeInTop"/>
    </vehicle>

    <vehicle id="11" type="bike" depart="13.00" arrival="34.00">
        <route edges="edgeOutTop edgeInRight"/>
    </vehicle>

    <vehicle id="18" type="bus" depart="18.00" arrival="40.00">
        <route edges="edgeOutTop edgeInRight"/>
    </vehicle>

    <vehicle id="19" type="bus" depart="21.00" arrival="40.00">
        <route edges="edgeOutBottom edgeInLeft"/>
    </vehicle>

</routes>
