<?xml version="1.0" encoding="UTF-8"?>

<!-- generated on 2024-02-09 20:42:06 by Eclipse SUMO GUI Version 1.19.0
<configuration xmlns:xsi="http://www.w3.org/2001/XMLSchema-instance" xsi:noNamespaceSchemaLocation="http://sumo.dlr.de/xsd/sumoConfiguration.xsd">

    <input>
        <net-file value="sumo/network.net.xml"/>
        <route-files value="sumo/sorted_random_route.rou.xml"/>
    </input>

    <output>
        <queue-output value="sumo/output/queues.xml"/>
        <summary-output value="sumo/output/summary.xml"/>
        <tripinfo-output value="sumo/output/tripinfo.xml"/>
        <vehroute-output value="sumo/output/vehroutes.xml"/>
    </output>

    <time>
        <begin value="0"/>
        <end value="2000"/>
    </time>

</configuration>
-->

<tripinfos xmlns:xsi="http://www.w3.org/2001/XMLSchema-instance" xsi:noNamespaceSchemaLocation="http://sumo.dlr.de/xsd/tripinfo_file.xsd">
    <tripinfo id="1" depart="14.00" departLane="edgeOutBottom_0" departPos="5.10" departSpeed="0.00" departDelay="0.52" arrival="34.00" arrivalLane="edgeInTop_0" arrivalPos="100.00" arrivalSpeed="11.94" duration="20.00" routeLength="209.30" waitingTime="0.00" waitingCount="0" stopTime="0.00" timeLoss="3.56" rerouteNo="0" devices="vehroute_1 tripinfo_1" vType="bus" speedFactor="0.94" vaporized=""/>
    <tripinfo id="3" depart="29.00" departLane="edgeOutBottom_0" departPos="5.10" departSpeed="0.00" departDelay="0.92" arrival="49.00" arrivalLane="edgeInRight_0" arrivalPos="100.00" arrivalSpeed="13.76" duration="20.00" routeLength="209.10" waitingTime="0.00" waitingCount="0" stopTime="0.00" timeLoss="4.95" rerouteNo="0" devices="vehroute_3 tripinfo_3" vType="bus" speedFactor="1.08" vaporized=""/>
    <tripinfo id="0" depart="8.00" departLane="edgeOutRight_0" departPos="5.10" departSpeed="0.00" departDelay="0.87" arrival="55.00" arrivalLane="edgeInBottom_0" arrivalPos="100.00" arrivalSpeed="14.55" duration="47.00" routeLength="203.93" waitingTime="23.00" waitingCount="1" stopTime="0.00" timeLoss="32.42" rerouteNo="0" devices="vehroute_0 tripinfo_0" vType="bike" speedFactor="1.06" vaporized=""/>
    <tripinfo id="2" depart="20.00" departLane="edgeOutRight_0" departPos="5.10" departSpeed="0.00" departDelay="0.51" arrival="58.00" arrivalLane="edgeInBottom_0" arrivalPos="100.00" arrivalSpeed="12.90" duration="38.00" routeLength="203.93" waitingTime="12.00" waitingCount="1" stopTime="0.00" timeLoss="22.23" rerouteNo="0" devices="vehroute_2 tripinfo_2" vType="car" speedFactor="1.01" vaporized=""/>
    <tripinfo id="5" depart="43.00" departLane="edgeOutRight_0" departPos="5.10" departSpeed="0.00" departDelay="0.16" arrival="67.00" arrivalLane="edgeInTop_0" arrivalPos="100.00" arrivalSpeed="11.19" duration="24.00" routeLength="209.10" waitingTime="0.00" waitingCount="0" stopTime="0.00" timeLoss="4.86" rerouteNo="0" devices="vehroute_5 tripinfo_5" vType="car" speedFactor="0.83" vaporized=""/>
    <tripinfo id="7" depart="60.00" departLane="edgeOutLeft_0" departPos="5.10" departSpeed="0.00" departDelay="0.79" arrival="81.00" arrivalLane="edgeInRight_0" arrivalPos="100.00" arrivalSpeed="11.21" duration="21.00" routeLength="209.30" waitingTime="0.00" waitingCount="0" stopTime="0.00" timeLoss="3.27" rerouteNo="0" devices="vehroute_7 tripinfo_7" vType="car" speedFactor="0.89" vaporized=""/>
    <tripinfo id="9" depart="75.00" departLane="edgeOutRight_0" departPos="5.10" departSpeed="0.00" departDelay="0.70" arrival="98.00" arrivalLane="edgeInBottom_0" arrivalPos="100.00" arrivalSpeed="11.64" duration="23.00" routeLength="203.93" waitingTime="0.00" waitingCount="0" stopTime="0.00" timeLoss="4.69" rerouteNo="0" devices="vehroute_9 tripinfo_9" vType="bus" speedFactor="0.86" vaporized=""/>
    <tripinfo id="4" depart="37.00" departLane="edgeOutBottom_0" departPos="5.10" departSpeed="0.00" departDelay="0.20" arrival="101.00" arrivalLane="edgeInLeft_0" arrivalPos="100.00" arrivalSpeed="13.80" duration="64.00" routeLength="203.93" waitingTime="40.00" waitingCount="1" stopTime="0.00" timeLoss="48.50" rerouteNo="0" devices="vehroute_4 tripinfo_4" vType="car" speedFactor="1.03" vaporized=""/>
    <tripinfo id="6" depart="52.00" departLane="edgeOutBottom_0" departPos="5.10" departSpeed="0.00" departDelay="0.51" arrival="103.00" arrivalLane="edgeInTop_0" arrivalPos="100.00" arrivalSpeed="13.74" duration="51.00" routeLength="209.30" waitingTime="26.00" waitingCount="1" stopTime="0.00" timeLoss="35.74" rerouteNo="0" devices="vehroute_6 tripinfo_6" vType="bike" speedFactor="1.05" vaporized=""/>
    <tripinfo id="8" depart="65.00" departLane="edgeOutBottom_0" departPos="5.10" departSpeed="0.00" departDelay="0.49" arrival="106.00" arrivalLane="edgeInLeft_0" arrivalPos="100.00" arrivalSpeed="12.12" duration="41.00" routeLength="203.93" waitingTime="14.00" waitingCount="1" stopTime="0.00" timeLoss="24.43" rerouteNo="0" devices="vehroute_8 tripinfo_8" vType="car" speedFactor="0.94" vaporized=""/>
    <tripinfo id="10" depart="84.00" departLane="edgeOutBottom_0" departPos="5.10" departSpeed="0.00" departDelay="0.85" arrival="108.00" arrivalLane="edgeInRight_0" arrivalPos="100.00" arrivalSpeed="13.88" duration="24.00" routeLength="209.10" waitingTime="0.00" waitingCount="0" stopTime="0.00" timeLoss="9.11" rerouteNo="0" devices="vehroute_10 tripinfo_10" vType="bike" speedFactor="1.09" vaporized=""/>
    <tripinfo id="14" depart="115.00" departLane="edgeOutBottom_0" departPos="5.10" departSpeed="0.00" departDelay="0.00" arrival="137.00" arrivalLane="edgeInRight_0" arrivalPos="100.00" arrivalSpeed="12.77" duration="22.00" routeLength="209.10" waitingTime="0.00" waitingCount="0" stopTime="0.00" timeLoss="5.94" rerouteNo="0" devices="vehroute_14 tripinfo_14" vType="bike" speedFactor="0.99" vaporized=""/>
    <tripinfo id="12" depart="101.00" departLane="edgeOutLeft_0" departPos="5.10" departSpeed="0.00" departDelay="1.64" arrival="146.00" arrivalLane="edgeInTop_0" arrivalPos="100.00" arrivalSpeed="13.99" duration="45.00" routeLength="203.93" waitingTime="19.00" waitingCount="1" stopTime="0.00" timeLoss="30.13" rerouteNo="0" devices="vehroute_12 tripinfo_12" vType="bike" speedFactor="1.05" vaporized=""/>
    <tripinfo id="15" depart="125.00" departLane="edgeOutLeft_0" departPos="5.10" departSpeed="0.00" departDelay="0.85" arrival="149.00" arrivalLane="edgeInRight_0" arrivalPos="100.00" arrivalSpeed="12.13" duration="24.00" routeLength="209.30" waitingTime="0.00" waitingCount="0" stopTime="0.00" timeLoss="7.44" rerouteNo="0" devices="vehroute_15 tripinfo_15" vType="bike" speedFactor="0.93" vaporized=""/>
    <tripinfo id="11" depart="92.00" departLane="edgeOutRight_0" departPos="5.10" departSpeed="0.00" departDelay="0.46" arrival="153.00" arrivalLane="edgeInTop_0" arrivalPos="100.00" arrivalSpeed="13.75" duration="61.00" routeLength="209.10" waitingTime="33.00" waitingCount="2" stopTime="0.00" timeLoss="44.90" rerouteNo="0" devices="vehroute_11 tripinfo_11" vType="car" speedFactor="1.03" vaporized=""/>
    <tripinfo id="13" depart="108.00" departLane="edgeOutRight_0" departPos="5.10" departSpeed="0.00" departDelay="1.45" arrival="154.00" arrivalLane="edgeInTop_0" arrivalPos="100.00" arrivalSpeed="14.39" duration="46.00" routeLength="209.10" waitingTime="17.00" waitingCount="2" stopTime="0.00" timeLoss="32.00" rerouteNo="0" devices="vehroute_13 tripinfo_13" vType="bus" speedFactor="1.12" vaporized=""/>
    <tripinfo id="16" depart="132.00" departLane="edgeOutLeft_0" departPos="5.10" departSpeed="0.00" departDelay="0.74" arrival="156.00" arrivalLane="edgeInBottom_0" arrivalPos="100.00" arrivalSpeed="11.40" duration="24.00" routeLength="209.10" waitingTime="0.00" waitingCount="0" stopTime="0.00" timeLoss="6.15" rerouteNo="0" devices="vehroute_16 tripinfo_16" vType="bus" speedFactor="0.88" vaporized=""/>
    <tripinfo id="17" depart="140.00" departLane="edgeOutLeft_0" departPos="5.10" departSpeed="0.00" departDelay="0.53" arrival="162.00" arrivalLane="edgeInTop_0" arrivalPos="100.00" arrivalSpeed="13.06" duration="22.00" routeLength="203.93" waitingTime="0.00" waitingCount="0" stopTime="0.00" timeLoss="5.03" rerouteNo="0" devices="vehroute_17 tripinfo_17" vType="bike" speedFactor="0.94" vaporized=""/>
    <tripinfo id="18" depart="150.00" departLane="edgeOutRight_0" departPos="5.10" departSpeed="0.00" departDelay="0.99" arrival="171.00" arrivalLane="edgeInLeft_0" arrivalPos="100.00" arrivalSpeed="12.12" duration="21.00" routeLength="209.30" waitingTime="0.00" waitingCount="0" stopTime="0.00" timeLoss="4.03" rerouteNo="0" devices="vehroute_18 tripinfo_18" vType="bike" speedFactor="0.94" vaporized=""/>
    <tripinfo id="19" depart="159.00" departLane="edgeOutRight_0" departPos="5.10" departSpeed="0.00" departDelay="0.68" arrival="179.00" arrivalLane="edgeInTop_0" arrivalPos="100.00" arrivalSpeed="15.44" duration="20.00" routeLength="209.10" waitingTime="0.00" waitingCount="0" stopTime="0.00" timeLoss="5.91" rerouteNo="0" devices="vehroute_19 tripinfo_19" vType="bike" speedFactor="1.16" vaporized=""/>
    <tripinfo id="20" depart="168.00" departLane="edgeOutTop_0" departPos="5.10" departSpeed="0.00" departDelay="0.73" arrival="190.00" arrivalLane="edgeInRight_0" arrivalPos="100.00" arrivalSpeed="13.46" duration="22.00" routeLength="203.93" waitingTime="0.00" waitingCount="0" stopTime="0.00" timeLoss="6.23" rerouteNo="0" devices="vehroute_20 tripinfo_20" vType="car" speedFactor="1.02" vaporized=""/>
    <tripinfo id="22" depart="185.00" departLane="edgeOutBottom_0" departPos="5.10" departSpeed="0.00" departDelay="0.47" arrival="207.00" arrivalLane="edgeInLeft_0" arrivalPos="100.00" arrivalSpeed="12.70" duration="22.00" routeLength="203.93" waitingTime="0.00" waitingCount="0" stopTime="0.00" timeLoss="5.84" rerouteNo="0" devices="vehroute_22 tripinfo_22" vType="car" speedFactor="0.97" vaporized=""/>
    <tripinfo id="23" depart="194.00" departLane="edgeOutTop_0" departPos="5.10" departSpeed="0.00" departDelay="0.10" arrival="214.00" arrivalLane="edgeInBottom_0" arrivalPos="100.00" arrivalSpeed="11.36" duration="20.00" routeLength="209.30" waitingTime="0.00" waitingCount="0" stopTime="0.00" timeLoss="3.06" rerouteNo="0" devices="vehroute_23 tripinfo_23" vType="car" speedFactor="0.89" vaporized=""/>
    <tripinfo id="21" depart="176.00" departLane="edgeOutLeft_0" departPos="5.10" departSpeed="0.00" departDelay="0.30" arrival="236.00" arrivalLane="edgeInTop_0" arrivalPos="100.00" arrivalSpeed="13.84" duration="60.00" routeLength="203.93" waitingTime="37.00" waitingCount="1" stopTime="0.00" timeLoss="44.18" rerouteNo="0" devices="vehroute_21 tripinfo_21" vType="bus" speedFactor="1.01" vaporized=""/>
    <tripinfo id="24" depart="202.00" departLane="edgeOutRight_0" departPos="5.10" departSpeed="0.00" departDelay="0.55" arrival="237.00" arrivalLane="edgeInLeft_0" arrivalPos="100.00" arrivalSpeed="11.36" duration="35.00" routeLength="209.30" waitingTime="8.00" waitingCount="1" stopTime="0.00" timeLoss="16.70" rerouteNo="0" devices="vehroute_24 tripinfo_24" vType="bike" speedFactor="0.83" vaporized=""/>
    <tripinfo id="25" depart="207.00" departLane="edgeOutRight_0" departPos="5.10" departSpeed="0.00" departDelay="0.40" arrival="240.00" arrivalLane="edgeInTop_0" arrivalPos="100.00" arrivalSpeed="11.77" duration="33.00" routeLength="209.10" waitingTime="5.00" waitingCount="1" stopTime="0.00" timeLoss="14.51" rerouteNo="0" devices="vehroute_25 tripinfo_25" vType="bike" speedFactor="0.87" vaporized=""/>
    <tripinfo id="26" depart="212.00" departLane="edgeOutRight_0" departPos="5.10" departSpeed="0.00" departDelay="0.13" arrival="242.00" arrivalLane="edgeInBottom_0" arrivalPos="100.00" arrivalSpeed="11.62" duration="30.00" routeLength="203.93" waitingTime="2.00" waitingCount="1" stopTime="0.00" timeLoss="12.85" rerouteNo="0" devices="vehroute_26 tripinfo_26" vType="bus" speedFactor="0.92" vaporized=""/>
    <tripinfo id="27" depart="217.00" departLane="edgeOutRight_0" departPos="5.10" departSpeed="0.00" departDelay="0.05" arrival="243.00" arrivalLane="edgeInLeft_0" arrivalPos="100.00" arrivalSpeed="13.02" duration="26.00" routeLength="209.30" waitingTime="0.00" waitingCount="0" stopTime="0.00" timeLoss="9.96" rerouteNo="0" devices="vehroute_27 tripinfo_27" vType="car" speedFactor="0.95" vaporized=""/>
    <tripinfo id="28" depart="225.00" departLane="edgeOutRight_0" departPos="5.10" departSpeed="0.00" departDelay="0.72" arrival="245.00" arrivalLane="edgeInTop_0" arrivalPos="100.00" arrivalSpeed="15.14" duration="20.00" routeLength="209.10" waitingTime="0.00" waitingCount="0" stopTime="0.00" timeLoss="5.87" rerouteNo="0" devices="vehroute_28 tripinfo_28" vType="bike" speedFactor="1.13" vaporized=""/>
    <tripinfo id="30" depart="239.00" departLane="edgeOutLeft_0" departPos="5.10" departSpeed="0.00" departDelay="0.40" arrival="257.00" arrivalLane="edgeInRight_0" arrivalPos="100.00" arrivalSpeed="16.08" duration="18.00" routeLength="209.30" waitingTime="0.00" waitingCount="0" stopTime="0.00" timeLoss="4.33" rerouteNo="0" devices="vehroute_30 tripinfo_30" vType="car" speedFactor="1.18" vaporized=""/>
    <tripinfo id="31" depart="249.00" departLane="edgeOutLeft_0" departPos="5.10" departSpeed="0.00" departDelay="0.85" arrival="269.00" arrivalLane="edgeInTop_0" arrivalPos="100.00" arrivalSpeed="15.88" duration="20.00" routeLength="203.93" waitingTime="0.00" waitingCount="0" stopTime="0.00" timeLoss="5.88" rerouteNo="0" devices="vehroute_31 tripinfo_31" vType="car" speedFactor="1.15" vaporized=""/>
    <tripinfo id="33" depart="263.00" departLane="edgeOutTop_0" departPos="5.10" departSpeed="0.00" departDelay="0.12" arrival="280.00" arrivalLane="edgeInBottom_0" arrivalPos="100.00" arrivalSpeed="16.11" duration="17.00" routeLength="209.30" waitingTime="0.00" waitingCount="0" stopTime="0.00" timeLoss="3.67" rerouteNo="0" devices="vehroute_33 tripinfo_33" vType="car" speedFactor="1.17" vaporized=""/>
    <tripinfo id="29" depart="234.00" departLane="edgeOutBottom_0" departPos="5.10" departSpeed="0.00" departDelay="0.48" arrival="282.00" arrivalLane="edgeInLeft_0" arrivalPos="100.00" arrivalSpeed="12.77" duration="48.00" routeLength="203.93" waitingTime="23.00" waitingCount="1" stopTime="0.00" timeLoss="30.72" rerouteNo="0" devices="vehroute_29 tripinfo_29" vType="bike" speedFactor="0.93" vaporized=""/>
    <tripinfo id="36" depart="286.00" departLane="edgeOutTop_0" departPos="5.10" departSpeed="0.00" departDelay="0.20" arrival="308.00" arrivalLane="edgeInRight_0" arrivalPos="100.00" arrivalSpeed="13.21" duration="22.00" routeLength="203.93" waitingTime="0.00" waitingCount="0" stopTime="0.00" timeLoss="5.63" rerouteNo="0" devices="vehroute_36 tripinfo_36" vType="car" speedFactor="0.97" vaporized=""/>
    <tripinfo id="32" depart="257.00" departLane="edgeOutRight_0" departPos="5.10" departSpeed="0.00" departDelay="2.53" arrival="326.00" arrivalLane="edgeInBottom_0" arrivalPos="100.00" arrivalSpeed="12.73" duration="69.00" routeLength="203.93" waitingTime="44.00" waitingCount="1" stopTime="0.00" timeLoss="53.15" rerouteNo="0" devices="vehroute_32 tripinfo_32" vType="bike" speedFactor="1.01" vaporized=""/>
    <tripinfo id="35" depart="279.00" departLane="edgeOutRight_0" departPos="5.10" departSpeed="0.00" departDelay="0.33" arrival="328.00" arrivalLane="edgeInTop_0" arrivalPos="100.00" arrivalSpeed="12.87" duration="49.00" routeLength="209.10" waitingTime="24.00" waitingCount="1" stopTime="0.00" timeLoss="33.24" rerouteNo="0" devices="vehroute_35 tripinfo_35" vType="car" speedFactor="1.02" vaporized=""/>
    <tripinfo id="38" depart="299.00" departLane="edgeOutRight_0" departPos="5.10" departSpeed="0.00" departDelay="0.69" arrival="334.00" arrivalLane="edgeInTop_0" arrivalPos="100.00" arrivalSpeed="14.54" duration="35.00" routeLength="209.10" waitingTime="5.00" waitingCount="1" stopTime="0.00" timeLoss="20.13" rerouteNo="0" devices="vehroute_38 tripinfo_38" vType="bike" speedFactor="1.10" vaporized=""/>
    <tripinfo id="39" depart="305.00" departLane="edgeOutRight_0" departPos="5.10" departSpeed="0.00" departDelay="0.78" arrival="337.00" arrivalLane="edgeInTop_0" arrivalPos="100.00" arrivalSpeed="11.49" duration="32.00" routeLength="209.10" waitingTime="1.00" waitingCount="1" stopTime="0.00" timeLoss="14.40" rerouteNo="0" devices="vehroute_39 tripinfo_39" vType="bike" speedFactor="0.90" vaporized=""/>
    <tripinfo id="34" depart="272.00" departLane="edgeOutLeft_0" departPos="5.10" departSpeed="0.00" departDelay="0.97" arrival="339.00" arrivalLane="edgeInBottom_0" arrivalPos="100.00" arrivalSpeed="13.76" duration="67.00" routeLength="209.10" waitingTime="41.00" waitingCount="2" stopTime="0.00" timeLoss="50.64" rerouteNo="0" devices="vehroute_34 tripinfo_34" vType="bike" speedFactor="0.99" vaporized=""/>
    <tripinfo id="37" depart="293.00" departLane="edgeOutLeft_0" departPos="5.10" departSpeed="0.00" departDelay="0.38" arrival="340.00" arrivalLane="edgeInBottom_0" arrivalPos="100.00" arrivalSpeed="15.87" duration="47.00" routeLength="209.10" waitingTime="20.00" waitingCount="2" stopTime="0.00" timeLoss="33.82" rerouteNo="0" devices="vehroute_37 tripinfo_37" vType="bike" speedFactor="1.18" vaporized=""/>
    <tripinfo id="40" depart="313.00" departLane="edgeOutLeft_0" departPos="5.10" departSpeed="0.00" departDelay="0.19" arrival="342.00" arrivalLane="edgeInRight_0" arrivalPos="100.00" arrivalSpeed="14.06" duration="29.00" routeLength="209.30" waitingTime="2.00" waitingCount="1" stopTime="0.00" timeLoss="13.73" rerouteNo="0" devices="vehroute_40 tripinfo_40" vType="car" speedFactor="1.03" vaporized=""/>
    <tripinfo id="44" depart="339.00" departLane="edgeOutRight_0" departPos="5.10" departSpeed="0.00" departDelay="0.90" arrival="358.00" arrivalLane="edgeInLeft_0" arrivalPos="100.00" arrivalSpeed="14.11" duration="19.00" routeLength="209.30" waitingTime="0.00" waitingCount="0" stopTime="0.00" timeLoss="4.08" rerouteNo="0" devices="vehroute_44 tripinfo_44" vType="car" speedFactor="1.04" vaporized=""/>
    <tripinfo id="41" depart="319.00" departLane="edgeOutTop_0" departPos="5.10" departSpeed="0.00" departDelay="0.30" arrival="372.00" arrivalLane="edgeInBottom_0" arrivalPos="100.00" arrivalSpeed="12.83" duration="53.00" routeLength="209.30" waitingTime="26.00" waitingCount="1" stopTime="0.00" timeLoss="36.46" rerouteNo="0" devices="vehroute_41 tripinfo_41" vType="bike" speedFactor="0.96" vaporized=""/>
    <tripinfo id="42" depart="324.00" departLane="edgeOutTop_0" departPos="5.10" departSpeed="0.00" departDelay="0.15" arrival="373.00" arrivalLane="edgeInLeft_0" arrivalPos="100.00" arrivalSpeed="14.81" duration="49.00" routeLength="209.10" waitingTime="24.00" waitingCount="1" stopTime="0.00" timeLoss="34.20" rerouteNo="0" devices="vehroute_42 tripinfo_42" vType="bus" speedFactor="1.09" vaporized=""/>
    <tripinfo id="43" depart="334.00" departLane="edgeOutTop_0" departPos="5.10" departSpeed="0.00" departDelay="1.66" arrival="376.00" arrivalLane="edgeInLeft_0" arrivalPos="100.00" arrivalSpeed="14.39" duration="42.00" routeLength="209.10" waitingTime="16.00" waitingCount="1" stopTime="0.00" timeLoss="26.10" rerouteNo="0" devices="vehroute_43 tripinfo_43" vType="bus" speedFactor="1.04" vaporized=""/>
    <tripinfo id="45" depart="345.00" departLane="edgeOutTop_0" departPos="5.10" departSpeed="0.00" departDelay="0.10" arrival="378.00" arrivalLane="edgeInRight_0" arrivalPos="100.00" arrivalSpeed="14.96" duration="33.00" routeLength="203.93" waitingTime="6.00" waitingCount="1" stopTime="0.00" timeLoss="18.57" rerouteNo="0" devices="vehroute_45 tripinfo_45" vType="bike" speedFactor="1.09" vaporized=""/>
    <tripinfo id="46" depart="353.00" departLane="edgeOutTop_0" departPos="5.10" departSpeed="0.00" departDelay="0.41" arrival="381.00" arrivalLane="edgeInLeft_0" arrivalPos="100.00" arrivalSpeed="12.92" duration="28.00" routeLength="209.10" waitingTime="1.00" waitingCount="1" stopTime="0.00" timeLoss="11.99" rerouteNo="0" devices="vehroute_46 tripinfo_46" vType="bus" speedFactor="1.00" vaporized=""/>
    <tripinfo id="48" depart="366.00" departLane="edgeOutBottom_0" departPos="5.10" departSpeed="0.00" departDelay="0.15" arrival="389.00" arrivalLane="edgeInLeft_0" arrivalPos="100.00" arrivalSpeed="11.78" duration="23.00" routeLength="203.93" waitingTime="0.00" waitingCount="0" stopTime="0.00" timeLoss="5.09" rerouteNo="0" devices="vehroute_48 tripinfo_48" vType="bike" speedFactor="0.88" vaporized=""/>
    <tripinfo id="47" depart="359.00" departLane="edgeOutTop_0" departPos="5.10" departSpeed="0.00" departDelay="0.05" arrival="391.00" arrivalLane="edgeInLeft_0" arrivalPos="100.00" arrivalSpeed="11.90" duration="32.00" routeLength="209.10" waitingTime="4.00" waitingCount="1" stopTime="0.00" timeLoss="14.15" rerouteNo="0" devices="vehroute_47 tripinfo_47" vType="car" speedFactor="0.90" vaporized=""/>
    <tripinfo id="49" depart="373.00" departLane="edgeOutLeft_0" departPos="5.10" departSpeed="0.00" departDelay="1.01" arrival="417.00" arrivalLane="edgeInRight_0" arrivalPos="100.00" arrivalSpeed="11.66" duration="44.00" routeLength="209.30" waitingTime="16.00" waitingCount="1" stopTime="0.00" timeLoss="25.78" rerouteNo="0" devices="vehroute_49 tripinfo_49" vType="bike" speedFactor="0.85" vaporized=""/>
    <tripinfo id="50" depart="380.00" departLane="edgeOutRight_0" departPos="5.10" departSpeed="0.00" departDelay="0.60" arrival="418.00" arrivalLane="edgeInBottom_0" arrivalPos="100.00" arrivalSpeed="11.07" duration="38.00" routeLength="203.93" waitingTime="11.00" waitingCount="1" stopTime="0.00" timeLoss="19.30" rerouteNo="0" devices="vehroute_50 tripinfo_50" vType="bike" speedFactor="0.85" vaporized=""/>
    <tripinfo id="53" depart="400.00" departLane="edgeOutLeft_0" departPos="5.10" departSpeed="0.00" departDelay="0.03" arrival="420.00" arrivalLane="edgeInTop_0" arrivalPos="100.00" arrivalSpeed="14.56" duration="20.00" routeLength="203.93" waitingTime="0.00" waitingCount="0" stopTime="0.00" timeLoss="5.54" rerouteNo="0" devices="vehroute_53 tripinfo_53" vType="bus" speedFactor="1.10" vaporized=""/>
    <tripinfo id="51" depart="387.00" departLane="edgeOutRight_0" departPos="5.10" departSpeed="0.00" departDelay="0.73" arrival="423.00" arrivalLane="edgeInTop_0" arrivalPos="100.00" arrivalSpeed="15.82" duration="36.00" routeLength="209.10" waitingTime="6.00" waitingCount="2" stopTime="0.00" timeLoss="21.75" rerouteNo="0" devices="vehroute_51 tripinfo_51" vType="car" speedFactor="1.17" vaporized=""/>
    <tripinfo id="52" depart="394.00" departLane="edgeOutRight_0" departPos="5.10" departSpeed="0.00" departDelay="0.99" arrival="425.00" arrivalLane="edgeInBottom_0" arrivalPos="100.00" arrivalSpeed="12.85" duration="31.00" routeLength="203.93" waitingTime="2.00" waitingCount="1" stopTime="0.00" timeLoss="15.50" rerouteNo="0" devices="vehroute_52 tripinfo_52" vType="car" speedFactor="1.02" vaporized=""/>
    <tripinfo id="55" depart="412.00" departLane="edgeOutRight_0" departPos="5.10" departSpeed="0.00" departDelay="0.24" arrival="432.00" arrivalLane="edgeInLeft_0" arrivalPos="100.00" arrivalSpeed="13.80" duration="20.00" routeLength="209.30" waitingTime="0.00" waitingCount="0" stopTime="0.00" timeLoss="3.90" rerouteNo="0" devices="vehroute_55 tripinfo_55" vType="bus" speedFactor="1.00" vaporized=""/>
    <tripinfo id="57" depart="427.00" departLane="edgeOutLeft_0" departPos="5.10" departSpeed="0.00" departDelay="0.27" arrival="447.00" arrivalLane="edgeInTop_0" arrivalPos="100.00" arrivalSpeed="14.78" duration="20.00" routeLength="203.93" waitingTime="0.00" waitingCount="0" stopTime="0.00" timeLoss="6.08" rerouteNo="0" devices="vehroute_57 tripinfo_57" vType="car" speedFactor="1.14" vaporized=""/>
    <tripinfo id="58" depart="434.00" departLane="edgeOutLeft_0" departPos="5.10" departSpeed="0.00" departDelay="0.84" arrival="455.00" arrivalLane="edgeInTop_0" arrivalPos="100.00" arrivalSpeed="13.14" duration="21.00" routeLength="203.93" waitingTime="0.00" waitingCount="0" stopTime="0.00" timeLoss="5.89" rerouteNo="0" devices="vehroute_58 tripinfo_58" vType="bike" speedFactor="1.02" vaporized=""/>
    <tripinfo id="54" depart="406.00" departLane="edgeOutTop_0" departPos="5.10" departSpeed="0.00" departDelay="0.49" arrival="461.00" arrivalLane="edgeInBottom_0" arrivalPos="100.00" arrivalSpeed="13.84" duration="55.00" routeLength="209.30" waitingTime="30.00" waitingCount="1" stopTime="0.00" timeLoss="39.71" rerouteNo="0" devices="vehroute_54 tripinfo_54" vType="car" speedFactor="1.00" vaporized=""/>
    <tripinfo id="56" depart="423.00" departLane="edgeOutTop_0" departPos="5.10" departSpeed="0.00" departDelay="1.43" arrival="464.00" arrivalLane="edgeInRight_0" arrivalPos="100.00" arrivalSpeed="11.42" duration="41.00" routeLength="203.93" waitingTime="14.00" waitingCount="1" stopTime="0.00" timeLoss="23.62" rerouteNo="0" devices="vehroute_56 tripinfo_56" vType="bus" speedFactor="0.90" vaporized=""/>
    <tripinfo id="59" depart="440.00" departLane="edgeOutTop_0" departPos="5.10" departSpeed="0.00" departDelay="0.26" arrival="466.00" arrivalLane="edgeInRight_0" arrivalPos="100.00" arrivalSpeed="13.09" duration="26.00" routeLength="203.93" waitingTime="0.00" waitingCount="0" stopTime="0.00" timeLoss="9.99" rerouteNo="0" devices="vehroute_59 tripinfo_59" vType="car" speedFactor="0.97" vaporized=""/>
    <tripinfo id="60" depart="448.00" departLane="edgeOutBottom_0" departPos="5.10" departSpeed="0.00" departDelay="0.98" arrival="469.00" arrivalLane="edgeInLeft_0" arrivalPos="100.00" arrivalSpeed="13.78" duration="21.00" routeLength="203.93" waitingTime="0.00" waitingCount="0" stopTime="0.00" timeLoss="5.80" rerouteNo="0" devices="vehroute_60 tripinfo_60" vType="car" speedFactor="1.08" vaporized=""/>
    <tripinfo id="61" depart="457.00" departLane="edgeOutBottom_0" departPos="5.10" departSpeed="0.00" departDelay="0.77" arrival="476.00" arrivalLane="edgeInRight_0" arrivalPos="100.00" arrivalSpeed="14.34" duration="19.00" routeLength="209.10" waitingTime="0.00" waitingCount="0" stopTime="0.00" timeLoss="5.02" rerouteNo="0" devices="vehroute_61 tripinfo_61" vType="car" speedFactor="1.12" vaporized=""/>
    <tripinfo id="62" depart="465.00" departLane="edgeOutBottom_0" departPos="5.10" departSpeed="0.00" departDelay="0.76" arrival="484.00" arrivalLane="edgeInTop_0" arrivalPos="100.00" arrivalSpeed="13.05" duration="19.00" routeLength="209.30" waitingTime="0.00" waitingCount="0" stopTime="0.00" timeLoss="3.59" rerouteNo="0" devices="vehroute_62 tripinfo_62" vType="car" speedFactor="1.02" vaporized=""/>
    <tripinfo id="64" depart="481.00" departLane="edgeOutTop_0" departPos="5.10" departSpeed="0.00" departDelay="0.54" arrival="503.00" arrivalLane="edgeInLeft_0" arrivalPos="100.00" arrivalSpeed="12.41" duration="22.00" routeLength="209.10" waitingTime="0.00" waitingCount="0" stopTime="0.00" timeLoss="4.60" rerouteNo="0" devices="vehroute_64 tripinfo_64" vType="bus" speedFactor="0.94" vaporized=""/>
    <tripinfo id="63" depart="474.00" departLane="edgeOutLeft_0" departPos="5.10" departSpeed="0.00" departDelay="0.66" arrival="506.00" arrivalLane="edgeInRight_0" arrivalPos="100.00" arrivalSpeed="12.73" duration="32.00" routeLength="209.30" waitingTime="6.00" waitingCount="1" stopTime="0.00" timeLoss="16.24" rerouteNo="0" devices="vehroute_63 tripinfo_63" vType="bike" speedFactor="0.99" vaporized=""/>
    <tripinfo id="66" depart="497.00" departLane="edgeOutRight_0" departPos="5.10" departSpeed="0.00" departDelay="0.64" arrival="517.00" arrivalLane="edgeInLeft_0" arrivalPos="100.00" arrivalSpeed="12.60" duration="20.00" routeLength="209.30" waitingTime="0.00" waitingCount="0" stopTime="0.00" timeLoss="3.31" rerouteNo="0" devices="vehroute_66 tripinfo_66" vType="bike" speedFactor="0.91" vaporized=""/>
    <tripinfo id="68" depart="509.00" departLane="edgeOutRight_0" departPos="5.10" departSpeed="0.00" departDelay="0.29" arrival="530.00" arrivalLane="edgeInTop_0" arrivalPos="100.00" arrivalSpeed="13.84" duration="21.00" routeLength="209.10" waitingTime="0.00" waitingCount="0" stopTime="0.00" timeLoss="5.59" rerouteNo="0" devices="vehroute_68 tripinfo_68" vType="bus" speedFactor="1.04" vaporized=""/>
    <tripinfo id="69" depart="519.00" departLane="edgeOutRight_0" departPos="5.10" departSpeed="0.00" departDelay="0.95" arrival="540.00" arrivalLane="edgeInBottom_0" arrivalPos="100.00" arrivalSpeed="13.37" duration="21.00" routeLength="203.93" waitingTime="0.00" waitingCount="0" stopTime="0.00" timeLoss="5.23" rerouteNo="0" devices="vehroute_69 tripinfo_69" vType="bike" speedFactor="1.02" vaporized=""/>
    <tripinfo id="65" depart="489.00" departLane="edgeOutBottom_0" departPos="5.10" departSpeed="0.00" departDelay="0.66" arrival="552.00" arrivalLane="edgeInLeft_0" arrivalPos="100.00" arrivalSpeed="11.33" duration="63.00" routeLength="203.93" waitingTime="37.00" waitingCount="1" stopTime="0.00" timeLoss="45.19" rerouteNo="0" devices="vehroute_65 tripinfo_65" vType="car" speedFactor="0.88" vaporized=""/>
    <tripinfo id="67" depart="503.00" departLane="edgeOutBottom_0" departPos="5.10" departSpeed="0.00" departDelay="0.62" arrival="554.00" arrivalLane="edgeInTop_0" arrivalPos="100.00" arrivalSpeed="11.81" duration="51.00" routeLength="209.30" waitingTime="25.00" waitingCount="1" stopTime="0.00" timeLoss="33.70" rerouteNo="0" devices="vehroute_67 tripinfo_67" vType="car" speedFactor="0.91" vaporized=""/>
    <tripinfo id="70" depart="527.00" departLane="edgeOutBottom_0" departPos="5.10" departSpeed="0.00" departDelay="0.83" arrival="556.00" arrivalLane="edgeInLeft_0" arrivalPos="100.00" arrivalSpeed="13.72" duration="29.00" routeLength="203.93" waitingTime="3.00" waitingCount="1" stopTime="0.00" timeLoss="13.49" rerouteNo="0" devices="vehroute_70 tripinfo_70" vType="car" speedFactor="1.02" vaporized=""/>